
#(C) 2019 by FIZ Karlsruhe - Leibniz Institute for Information Infrastructure.  All rights reserved.
data_10149-ICSD
_database_code_ICSD 10149
_audit_creation_date 1980-01-01
_audit_update_record 2004-04-01
_chemical_name_systematic 'Dititanium(III) dititanium oxide - LT'
_chemical_formula_structural 'Ti4 O7'
_chemical_formula_sum 'O7 Ti4'
_chemical_name_structure_type V4O7
_exptl_crystal_density_diffrn 4.34
_cell_measurement_temperature 135.
_publ_section_title

;
Structural aspects of the metal-insulator transition in (Ti0.9975 V0.0025)4 O7
;
loop_
_citation_id
_citation_journal_full
_citation_year
_citation_journal_volume
_citation_page_first
_citation_page_last
_citation_journal_id_ASTM
primary 'Journal of Solid State Chemistry' 1979 29 47 62 JSSCBI
loop_
_publ_author_name
'Hodeau, J.L.'
'Marezio, M.'
_cell_length_a 5.5943(5)
_cell_length_b 7.1297(7)
_cell_length_c 12.484(1)
_cell_angle_alpha 95.00(1)
_cell_angle_beta 95.426(9)
_cell_angle_gamma 109.023(9)
_cell_volume 464.93
_cell_formula_units_Z 4
_symmetry_space_group_name_H-M 'A -1'
_symmetry_Int_Tables_number 2
_refine_ls_R_factor_all 0.031
loop_
_symmetry_equiv_pos_site_id
_symmetry_equiv_pos_as_xyz
1 '-x, -y, -z'
2 'x, y, z'
3 '-x, -y+1/2, -z+1/2'
4 'x, y+1/2, z+1/2'
loop_
_atom_type_symbol
_atom_type_oxidation_number
Ti3+ 3.5
O2- -2
loop_
_atom_site_label
_atom_site_type_symbol
_atom_site_symmetry_multiplicity
_atom_site_Wyckoff_symbol
_atom_site_fract_x
_atom_site_fract_y
_atom_site_fract_z
_atom_site_B_iso_or_equiv
_atom_site_occupancy
_atom_site_attached_hydrogens
Ti1 Ti3+ 4 i 0.21736(9) 0.15555(7) 0.06404(3) . 1. 0
Ti2 Ti3+ 4 i 0.21720(8) 0.65514(7) 0.06595(3) . 1. 0
Ti3 Ti3+ 4 i 0.68133(8) 0.44247(7) 0.20064(4) . 1. 0
Ti4 Ti3+ 4 i 0.68747(8) 0.94245(7) 0.19977(4) . 1. 0
O1 O2- 4 i 0.1085(4) 0.8615(3) 0.0159(2) . 1. 0
O2 O2- 4 i 0.5862(4) 0.7938(3) 0.0569(2) . 1. 0
O3 O2- 4 i 0.8536(4) 0.4968(3) 0.0798(2) . 1. 0
O4 O2- 4 i 0.3238(4) 0.4397(3) 0.1396(2) . 1. 0
O5 O2- 4 i 0.5271(4) 0.1436(3) 0.1654(2) . 1. 0
O6 O2- 4 i 0.0398(4) 0.0708(3) 0.1978(2) . 1. 0
O7 O2- 4 i 0.2909(4) 0.7856(3) 0.2234(2) . 1. 0
loop_
_atom_site_aniso_label
_atom_site_aniso_type_symbol
_atom_site_aniso_beta_11
_atom_site_aniso_beta_22
_atom_site_aniso_beta_33
_atom_site_aniso_beta_12
_atom_site_aniso_beta_13
_atom_site_aniso_beta_23
Ti1 Ti3+ 0.0046(2) 0.0016(1) 0.00056(3) 0.00124(8) 0.00063(4) 0.00017(3)
Ti2 Ti3+ 0.0039(2) 0.0019(1) 0.00041(3) 0.00077(8) 0.00021(4) 0.00021(3)
Ti3 Ti3+ 0.0034(2) 0.0017(1) 0.00092(3) 0.00106(8) 0.00075(4) 0.00047(3)
Ti4 Ti3+ 0.0044(2) 0.0015(1) 0.00053(3) 0.00137(8) 0.00026(4) 0.00027(3)
O1 O2- 0.0045(4) 0.0026(3) 0.0012(1) 0.0018(3) 0.0000(2) 0.0005(1)
O2 O2- 0.0031(4) 0.0021(3) 0.0011(1) 0.0005(3) -.0003(2) 0.0003(1)
O3 O2- 0.0023(4) 0.0031(3) 0.0010(1) 0.0001(3) 0.0003(2) 0.0002(1)
O4 O2- 0.0043(4) 0.0015(3) 0.0007(1) 0.0009(3) 0.0003(2) 0.0005(1)
O5 O2- 0.0034(4) 0.0023(3) 0.0008(1) 0.0006(3) -.0004(2) 0.0001(1)
O6 O2- 0.0024(4) 0.0013(3) 0.0008(1) 0.0003(3) 0.0002(2) 0.0003(1)
O7 O2- 0.0034(4) 0.0008(3) 0.0007(1) -.0002(3) -.0001(2) 0.0003(1)
#End of TTdata_10149-ICSD