
#(C) 2019 by FIZ Karlsruhe - Leibniz Institute for Information Infrastructure.  All rights reserved.
data_107981-ICSD
_database_code_ICSD 107981
_audit_creation_date 2009-02-01
_chemical_name_systematic 'Titanium oxide hydroxide (3/4/4)'
_chemical_formula_structural 'Ti0.374 O0.5 (O H)0.5'
_chemical_formula_sum 'H0.5 O1 Ti0.374'
_chemical_name_mineral Kleberite
_exptl_crystal_density_diffrn 3.53
_publ_section_title
'Erste Ergebnisse der Strukturbestimmung eines neuen Minerals vom TiOx-Typ'
loop_
_citation_id
_citation_journal_full
_citation_year
_citation_journal_volume
_citation_page_first
_citation_page_last
_citation_journal_id_ASTM
primary 'Zeitschrift fuer Geologische Wissenschaften' 1978 6 673 679 ZGWSA7
loop_
_publ_author_name
'Zedler, A.'
'Sedlacek, P.'
'Rohde, G.'
'Bautsch, H.J.'
_cell_length_a 2.8542(3)
_cell_length_b 4.9448(7)
_cell_length_c 4.5857(6)
_cell_angle_alpha 90.
_cell_angle_beta 90.
_cell_angle_gamma 90.
_cell_volume 64.72
_cell_formula_units_Z 4
_symmetry_space_group_name_H-M 'C m c m'
_symmetry_Int_Tables_number 63
_refine_ls_R_factor_all 0.16
loop_
_symmetry_equiv_pos_site_id
_symmetry_equiv_pos_as_xyz
1 '-x, y, -z+1/2'
2 '-x, -y, z+1/2'
3 '-x, y, z'
4 '-x, -y, -z'
5 'x, -y, z+1/2'
6 'x, y, -z+1/2'
7 'x, -y, -z'
8 'x, y, z'
9 '-x+1/2, y+1/2, -z+1/2'
10 '-x+1/2, -y+1/2, z+1/2'
11 '-x+1/2, y+1/2, z'
12 '-x+1/2, -y+1/2, -z'
13 'x+1/2, -y+1/2, z+1/2'
14 'x+1/2, y+1/2, -z+1/2'
15 'x+1/2, -y+1/2, -z'
16 'x+1/2, y+1/2, z'
loop_
_atom_type_symbol
_atom_type_oxidation_number
Ti4+ 4
O2- -2
H1+ 1
loop_
_atom_site_label
_atom_site_type_symbol
_atom_site_symmetry_multiplicity
_atom_site_Wyckoff_symbol
_atom_site_fract_x
_atom_site_fract_y
_atom_site_fract_z
_atom_site_B_iso_or_equiv
_atom_site_occupancy
_atom_site_attached_hydrogens
Ti1 Ti4+ 8 f 0 0.033 0 1.6(5) .065(3) 0
Ti2 Ti4+ 16 h 0.051 0.017 0 1.5(5) .061(2) 0
O1 O2- 16 h 0.017 0.333 0.264 2.2(2) .25 0
#End of TTdata_107981-ICSD