
#(C) 2019 by FIZ Karlsruhe - Leibniz Institute for Information Infrastructure.  All rights reserved.
data_15327-ICSD
_database_code_ICSD 15327
_audit_creation_date 1986-09-24
_audit_update_record 2006-04-01
_chemical_name_systematic 'Titanium(II) oxide'
_chemical_formula_structural 'Ti O'
_chemical_formula_sum 'O1 Ti1'
_exptl_crystal_density_diffrn 4.91
_publ_section_title 'The ordered structure of Ti O'
loop_
_citation_id
_citation_journal_full
_citation_year
_citation_journal_volume
_citation_page_first
_citation_page_last
_citation_journal_id_ASTM
primary 'Acta Crystallographica' 1967 23 307 313 ACCRA9
loop_
_publ_author_name
'Watanabe, D.'
'Castles, J.R.'
'Jostsons, A.'
'Malin, A.S.'
_cell_length_a 5.855(3)
_cell_length_b 9.340(5)
_cell_length_c 4.142(2)
_cell_angle_alpha 90.
_cell_angle_beta 90.
_cell_angle_gamma 107.53(5)
_cell_volume 215.99
_cell_formula_units_Z 10
_symmetry_space_group_name_H-M 'A 1 1 2/m'
_symmetry_Int_Tables_number 12
loop_
_symmetry_equiv_pos_site_id
_symmetry_equiv_pos_as_xyz
1 'x, y, -z'
2 '-x, -y, -z'
3 '-x, -y, z'
4 'x, y, z'
5 'x, y+1/2, -z+1/2'
6 '-x, -y+1/2, -z+1/2'
7 '-x, -y+1/2, z+1/2'
8 'x, y+1/2, z+1/2'
loop_
_atom_type_symbol
_atom_type_oxidation_number
Ti2+ 2
O2- -2
loop_
_atom_site_label
_atom_site_type_symbol
_atom_site_symmetry_multiplicity
_atom_site_Wyckoff_symbol
_atom_site_fract_x
_atom_site_fract_y
_atom_site_fract_z
_atom_site_B_iso_or_equiv
_atom_site_occupancy
_atom_site_attached_hydrogens
Ti1 Ti2+ 2 c 0.5 0 0 0.37(5) 1. 0
Ti2 Ti2+ 4 i 0.164(5) 0.336(3) 0 0.37(5) 1. 0
Ti3 Ti2+ 4 i 0.6666(5) 0.340(2) 0 0.37(5) 1. 0
O1 O2- 4 i 0.324(16) 0.181(9) 0 0.37(5) 1. 0
O2 O2- 4 i 0.819(16) 0.165(10) 0 0.37(5) 1. 0
O3 O2- 2 b 0 0.5 0 0.37(5) 1. 0
#End of TTdata_15327-ICSD