
#(C) 2019 by FIZ Karlsruhe - Leibniz Institute for Information Infrastructure.  All rights reserved.
data_158732-ICSD
_database_code_ICSD 158732
_audit_creation_date 2008-08-01
_chemical_name_systematic 'Manganese titanate - III'
_chemical_formula_structural 'Mn (Ti O3)'
_chemical_formula_sum 'Mn1 O3 Ti1'
_chemical_name_structure_type Perovskite-GdFeO3
_exptl_crystal_density_diffrn 4.99
_cell_measurement_pressure 4450000.
_publ_section_title
'A new phase transition in Mn Ti O3: (Li Nb O3)-perovskite structure'
loop_
_citation_id
_citation_journal_full
_citation_year
_citation_journal_volume
_citation_page_first
_citation_page_last
_citation_journal_id_ASTM
primary 'Physics and Chemistry of Minerals' 1989 16 621 629 PCMIDU
loop_
_publ_author_name
'Ross, N.L.'
'Ko Jaidong'
'Prewitt, C.T.'
_cell_length_a 5.1048(7)
_cell_length_b 5.3046(6)
_cell_length_c 7.418(2)
_cell_angle_alpha 90.
_cell_angle_beta 90.
_cell_angle_gamma 90.
_cell_volume 200.87
_cell_formula_units_Z 4
_symmetry_space_group_name_H-M 'P b n m'
_symmetry_Int_Tables_number 62
_refine_ls_R_factor_all 0.045
loop_
_symmetry_equiv_pos_site_id
_symmetry_equiv_pos_as_xyz
1 '-x+1/2, y+1/2, z'
2 'x, y, -z+1/2'
3 'x+1/2, -y+1/2, z+1/2'
4 '-x, -y, -z'
5 'x+1/2, -y+1/2, -z'
6 '-x, -y, z+1/2'
7 '-x+1/2, y+1/2, -z+1/2'
8 'x, y, z'
loop_
_atom_type_symbol
_atom_type_oxidation_number
Mn2+ 2
Ti4+ 4
O2- -2
loop_
_atom_site_label
_atom_site_type_symbol
_atom_site_symmetry_multiplicity
_atom_site_Wyckoff_symbol
_atom_site_fract_x
_atom_site_fract_y
_atom_site_fract_z
_atom_site_B_iso_or_equiv
_atom_site_occupancy
_atom_site_attached_hydrogens
Mn1 Mn2+ 4 c 0.9875(4) 0.0543(3) 0.25 0.88(5) 1. 0
Ti1 Ti4+ 4 b 0 0.5 0 0.67(5) 1. 0
O1 O2- 4 c 0.1134(16) 0.4534(13) 0.25 0.56(16) 1. 0
O2 O2- 8 d 0.6885(11) 0.3073(10) 0.0621(14) 0.80(12) 1. 0
#End of TTdata_158732-ICSD