
#(C) 2019 by FIZ Karlsruhe - Leibniz Institute for Information Infrastructure.  All rights reserved.
data_158778-ICSD
_database_code_ICSD 158778
_audit_creation_date 2008-08-01
_chemical_name_systematic 'Titanium oxide - II'
_chemical_formula_structural 'Ti O2'
_chemical_formula_sum 'O2 Ti1'
_chemical_name_structure_type PbO2-alpha
_exptl_crystal_density_diffrn 4.35
_cell_measurement_temperature 293.
_publ_section_title

;
Crystalline structure of the (Ti O2)-II high-pressure phase at 293, 223 and
133 K according to single-crystal X-ray diffraction data
;
loop_
_citation_id
_citation_journal_full
_citation_year
_citation_journal_volume
_citation_page_first
_citation_page_last
_citation_journal_id_ASTM
primary 'Doklady Akademii Nauk' 2007 413 624 628 DAKNEQ
loop_
_publ_author_name
'Filatov, S.K.'
'Bendeliani, N.A.'
'Albert, B.'
'Kopf, J.'
'Dyuzheva, T.I.'
'Lityagina, L.M.'
_cell_length_a 4.5271(14)
_cell_length_b 5.4972(17)
_cell_length_c 4.9001(15)
_cell_angle_alpha 90.
_cell_angle_beta 90.
_cell_angle_gamma 90.
_cell_volume 121.95
_cell_formula_units_Z 4
_symmetry_space_group_name_H-M 'P b c n'
_symmetry_Int_Tables_number 60
_refine_ls_R_factor_all 0.034
loop_
_symmetry_equiv_pos_site_id
_symmetry_equiv_pos_as_xyz
1 'x, -y, z+1/2'
2 '-x+1/2, y+1/2, z'
3 'x+1/2, y+1/2, -z+1/2'
4 '-x, -y, -z'
5 '-x, y, -z+1/2'
6 'x+1/2, -y+1/2, -z'
7 '-x+1/2, -y+1/2, z+1/2'
8 'x, y, z'
loop_
_atom_type_symbol
_atom_type_oxidation_number
Ti4+ 4
O2- -2
loop_
_atom_site_label
_atom_site_type_symbol
_atom_site_symmetry_multiplicity
_atom_site_Wyckoff_symbol
_atom_site_fract_x
_atom_site_fract_y
_atom_site_fract_z
_atom_site_B_iso_or_equiv
_atom_site_occupancy
_atom_site_attached_hydrogens
Ti1 Ti4+ 4 c 0 0.17190(6) 0.25 0.0062(1) 1. 0
O1 O2- 8 d 0.27109(18) 0.38311(17) 0.4187(2) 0.0061(2) 1. 0
loop_
_atom_site_aniso_label
_atom_site_aniso_type_symbol
_atom_site_aniso_U_11
_atom_site_aniso_U_22
_atom_site_aniso_U_33
_atom_site_aniso_U_12
_atom_site_aniso_U_13
_atom_site_aniso_U_23
Ti1 Ti4+ 0.0063(2) 0.0063(2) 0.0060(2) 0. 0.0003(1) 0.
O1 O2- 0.0052(4) 0.0065(4) 0.0066(4) -0.0015(3) -0.0012(3) 0.0002(4)
#End of TTdata_158778-ICSD