
#(C) 2019 by FIZ Karlsruhe - Leibniz Institute for Information Infrastructure.  All rights reserved.
data_159510-ICSD
_database_code_ICSD 159510
_audit_creation_date 2008-08-01
_chemical_name_systematic 'Lithium hydroxide hydrate'
_chemical_formula_structural 'Li (O H) (H2 O)'
_chemical_formula_sum 'H3 Li1 O2'
_chemical_name_structure_type LiOHH2O
_exptl_crystal_density_diffrn 1.53
_publ_section_title 'Crystal structure of lithium hydroxide monohydrate'
loop_
_citation_id
_citation_journal_full
_citation_year
_citation_journal_volume
_citation_page_first
_citation_page_last
_citation_journal_id_ASTM
primary 'Zeitschrift fuer Kristallographie' 1940 102 119 140 ZEKRDZ
loop_
_publ_author_name
'Pepinsky, R.'
_cell_length_a 7.37
_cell_length_b 8.26
_cell_length_c 3.19
_cell_angle_alpha 90
_cell_angle_beta 110.3
_cell_angle_gamma 90
_cell_volume 182.13
_cell_formula_units_Z 4
_symmetry_space_group_name_H-M 'C 1 2/m 1'
_symmetry_Int_Tables_number 12
loop_
_symmetry_equiv_pos_site_id
_symmetry_equiv_pos_as_xyz
1 '-x, y, -z'
2 '-x, -y, -z'
3 'x, -y, z'
4 'x, y, z'
5 '-x+1/2, y+1/2, -z'
6 '-x+1/2, -y+1/2, -z'
7 'x+1/2, -y+1/2, z'
8 'x+1/2, y+1/2, z'
loop_
_atom_type_symbol
_atom_type_oxidation_number
Li1+ 1
O2- -2
H1+ 1
loop_
_atom_site_label
_atom_site_type_symbol
_atom_site_symmetry_multiplicity
_atom_site_Wyckoff_symbol
_atom_site_fract_x
_atom_site_fract_y
_atom_site_fract_z
_atom_site_B_iso_or_equiv
_atom_site_occupancy
_atom_site_attached_hydrogens
Li1 Li1+ 4 h 0 0.35 0.5 . 1. 0
O1 O2- 4 g 0 0.211 0 . 1. 0
O2 O2- 4 i 0.286 0 0.389 . 1. 0
#End of TTdata_159510-ICSD