
#(C) 2019 by FIZ Karlsruhe - Leibniz Institute for Information Infrastructure.  All rights reserved.
data_16297-ICSD
_database_code_ICSD 16297
_audit_creation_date 1980-01-01
_audit_update_record 2016-02-01
_chemical_name_systematic 'Titanium oxide (4/7)'
_chemical_formula_structural 'Ti4 O7'
_chemical_formula_sum 'O7 Ti4'
_chemical_name_structure_type Ti4O7
_exptl_crystal_density_diffrn 4.33
_publ_section_title

;
The Crystal Structure of Ti4 O7, a Member of the Homologous Series Tin O(2n-1)
;
loop_
_citation_id
_citation_journal_full
_citation_year
_citation_journal_volume
_citation_page_first
_citation_page_last
_citation_journal_id_ASTM
primary 'Journal of Solid State Chemistry' 1971 3 340 348 JSSCBI
loop_
_publ_author_name
'Marezio, M.'
'Dernier, P.D.'
_cell_length_a 5.600(2)
_cell_length_b 7.133(3)
_cell_length_c 12.466(5)
_cell_angle_alpha 95.05(1)
_cell_angle_beta 95.17(1)
_cell_angle_gamma 108.71(2)
_cell_volume 466.1
_cell_formula_units_Z 4
_symmetry_space_group_name_H-M 'P -1'
_symmetry_Int_Tables_number 2
_refine_ls_R_factor_all 0.025
loop_
_symmetry_equiv_pos_site_id
_symmetry_equiv_pos_as_xyz
1 '-x, -y, -z'
2 'x, y, z'
loop_
_atom_type_symbol
_atom_type_oxidation_number
Ti3+ 3.5
O2- -2
loop_
_atom_site_label
_atom_site_type_symbol
_atom_site_symmetry_multiplicity
_atom_site_Wyckoff_symbol
_atom_site_fract_x
_atom_site_fract_y
_atom_site_fract_z
_atom_site_B_iso_or_equiv
_atom_site_occupancy
_atom_site_attached_hydrogens
Ti1 Ti3+ 2 i 0.2159(2) 0.1526(1) 0.0629(1) 0.42(2) 1. 0
Ti2 Ti3+ 2 i 0.2186(2) 0.6528(1) 0.0663(1) 0.42(2) 1. 0
Ti3 Ti3+ 2 i 0.2165(1) 0.6530(1) 0.5628(1) 0.50(2) 1. 0
Ti4 Ti3+ 2 i 0.2185(1) 0.1524(1) 0.5661(1) 0.45(2) 1. 0
Ti5 Ti3+ 2 i 0.6836(1) 0.4401(1) 0.2013(1) 0.42(2) 1. 0
Ti6 Ti3+ 2 i 0.6881(1) 0.9422(1) 0.2013(1) 0.42(2) 1. 0
Ti7 Ti3+ 2 i 0.6833(1) 0.9399(1) 0.7014(1) 0.45(2) 1. 0
Ti8 Ti3+ 2 i 0.6891(1) 0.4425(1) 0.7014(1) 0.51(2) 1. 0
O1 O2- 2 i 0.1042(6) 0.8637(5) 0.0180(3) 0.52(2) 1. 0
O2 O2- 2 i 0.5832(6) 0.7974(5) 0.0562(3) 0.48(2) 1. 0
O3 O2- 2 i 0.8473(6) 0.4930(5) 0.0778(3) 0.54(2) 1. 0
O4 O2- 2 i 0.3354(6) 0.4404(5) 0.1396(3) 0.52(2) 1. 0
O5 O2- 2 i 0.5314(6) 0.1467(5) 0.1666(3) 0.56(2) 1. 0
O6 O2- 2 i 0.0400(6) 0.0771(5) 0.1994(3) 0.54(2) 1. 0
O7 O2- 2 i 0.2964(6) 0.7949(5) 0.2258(3) 0.49(2) 1. 0
O8 O2- 2 i 0.2928(6) 0.2859(5) 0.7220(2) 0.49(2) 1. 0
O9 O2- 2 i 0.0350(5) 0.5630(5) 0.6969(3) 0.39(2) 1. 0
O10 O2- 2 i 0.5221(5) 0.6432(5) 0.6613(2) 0.41(2) 1. 0
O11 O2- 2 i 0.3209(6) 0.9367(5) 0.6377(3) 0.43(2) 1. 0
O12 O2- 2 i 0.8641(5) 0.9996(5) 0.5845(2) 0.54(2) 1. 0
O13 O2- 2 i 0.5907(6) 0.2867(6) 0.5595(3) 0.53(2) 1. 0
O14 O2- 2 i 0.1105(6) 0.3615(5) 0.5119(3) 0.58(2) 1. 0
#End of TTdata_16297-ICSD