
#(C) 2019 by FIZ Karlsruhe - Leibniz Institute for Information Infrastructure.  All rights reserved.
data_163148-ICSD
_database_code_ICSD 163148
_audit_creation_date 2009-08-01
_chemical_name_systematic 'Titanium deuteriooxide fluoride (0.82/1.5/1.5)'
_chemical_formula_structural 'Ti0.818 ((O D)1.5 F1.5)'
_chemical_formula_sum 'D1.5 F1.5 O1.5 Ti0.818'
_exptl_crystal_density_diffrn 2.85
_cell_measurement_temperature 293.
_publ_section_title
'New titanium hydroxyfluoride Ti0.75 (O H)1.5 F1.5 as a UV absorber'
loop_
_citation_id
_citation_journal_full
_citation_year
_citation_journal_volume
_citation_page_first
_citation_page_last
_citation_journal_id_ASTM
primary 'Chemistry of Materials' 2009 21 1275 1283 CMATEX
loop_
_publ_author_name
'Demourgues, A.'
'Penin, N.'
'Durand, E.'
'Weill, F.'
'Dambournet, D.'
'Viadere, N.'
'Tressaud, A.'
_cell_length_a 7.6177(2)
_cell_length_b 7.6177(2)
_cell_length_c 7.6177(2)
_cell_angle_alpha 90.
_cell_angle_beta 90.
_cell_angle_gamma 90.
_cell_volume 442.05
_cell_formula_units_Z 8
_symmetry_space_group_name_H-M 'P n -3 m S'
_symmetry_Int_Tables_number 224
_refine_ls_R_factor_all 0.015
loop_
_symmetry_equiv_pos_site_id
_symmetry_equiv_pos_as_xyz
1 'y+1/2, x+1/2, -z+1/2'
2 'z+1/2, x+1/2, -y+1/2'
3 'z+1/2, y+1/2, -x+1/2'
4 'y+1/2, z+1/2, -x+1/2'
5 'x+1/2, z+1/2, -y+1/2'
6 'x+1/2, y+1/2, -z+1/2'
7 'y+1/2, -x+1/2, z+1/2'
8 'z+1/2, -x+1/2, y+1/2'
9 'z+1/2, -y+1/2, x+1/2'
10 'y+1/2, -z+1/2, x+1/2'
11 'x+1/2, -z+1/2, y+1/2'
12 'x+1/2, -y+1/2, z+1/2'
13 '-y+1/2, x+1/2, z+1/2'
14 '-z+1/2, x+1/2, y+1/2'
15 '-z+1/2, y+1/2, x+1/2'
16 '-y+1/2, z+1/2, x+1/2'
17 '-x+1/2, z+1/2, y+1/2'
18 '-x+1/2, y+1/2, z+1/2'
19 '-y+1/2, -x+1/2, -z+1/2'
20 '-z+1/2, -x+1/2, -y+1/2'
21 '-z+1/2, -y+1/2, -x+1/2'
22 '-y+1/2, -z+1/2, -x+1/2'
23 '-x+1/2, -z+1/2, -y+1/2'
24 '-x+1/2, -y+1/2, -z+1/2'
25 '-y, -x, z'
26 '-z, -x, y'
27 '-z, -y, x'
28 '-y, -z, x'
29 '-x, -z, y'
30 '-x, -y, z'
31 '-y, x, -z'
32 '-z, x, -y'
33 '-z, y, -x'
34 '-y, z, -x'
35 '-x, z, -y'
36 '-x, y, -z'
37 'y, -x, -z'
38 'z, -x, -y'
39 'z, -y, -x'
40 'y, -z, -x'
41 'x, -z, -y'
42 'x, -y, -z'
43 'y, x, z'
44 'z, x, y'
45 'z, y, x'
46 'y, z, x'
47 'x, z, y'
48 'x, y, z'
loop_
_atom_type_symbol
_atom_type_oxidation_number
Ti3+ 3.667
O2- -2
F1- -1
O2- -2
F1- -1
D1+ 1
loop_
_atom_site_label
_atom_site_type_symbol
_atom_site_symmetry_multiplicity
_atom_site_Wyckoff_symbol
_atom_site_fract_x
_atom_site_fract_y
_atom_site_fract_z
_atom_site_B_iso_or_equiv
_atom_site_occupancy
_atom_site_attached_hydrogens
Ti1 Ti3+ 2 a 0 0 0 0.9(2) 0.87(3) 0
Ti2 Ti3+ 6 d 0 0.5 0.5 0.9(3) 0.80(3) 0
O1 O2- 12 f 0.25 0 0.5 1.38(3) 0.5 0
F1 F1- 12 f 0.25 0 0.5 1.38(3) 0.5 0
O2 O2- 24 k 0.027(1) 0.027(1) 0.246(3) 1.22(4) 0.25 0
F2 F1- 24 k 0.027(1) 0.027(1) 0.246(3) 1.22(4) 0.25 0
#End of TTdata_163148-ICSD