
#(C) 2019 by FIZ Karlsruhe - Leibniz Institute for Information Infrastructure.  All rights reserved.
data_163245-ICSD
_database_code_ICSD 163245
_audit_creation_date 2009-08-01
_chemical_name_systematic 'Manganese silicide (1/1.74)'
_chemical_formula_structural 'Mn Si1.736'
_chemical_formula_sum 'Mn1 Si1.736'
_exptl_crystal_density_diffrn 5.16
_cell_measurement_temperature 295.
_publ_section_title

;
Modulated crystal structure of chimney-ladder higher manganese silicides Mn
Si(gamma) (gamma ca.1.74)
;
loop_
_citation_id
_citation_journal_full
_citation_year
_citation_journal_volume
_citation_page_first
_citation_page_last
_citation_journal_id_ASTM
primary 'Physical Review B: Condensed Matter and Materials Physics' 2008 78
214104-1 214104-8 PRBMDO
loop_
_publ_author_name
'Miyazaki, Y.'
'Igarashi, D.'
'Hayashi, K.'
'Kajitani, T.'
'Yubuta, K.'
_cell_length_a 5.5271(2)
_cell_length_b 5.5271(2)
_cell_length_c 4.3668(2)
_cell_angle_alpha 90.
_cell_angle_beta 90.
_cell_angle_gamma 90.
_cell_volume 133.4
_cell_formula_units_Z 4
_symmetry_space_group_name_H-M 'I 41/a m d S'
_symmetry_Int_Tables_number 141
_refine_ls_R_factor_all 0.068
loop_
_symmetry_equiv_pos_site_id
_symmetry_equiv_pos_as_xyz
1 'y, -x+1/2, z+1/4'
2 '-y, x+1/2, z+1/4'
3 'y, -x, -z'
4 '-y, x, -z'
5 '-y, -x+1/2, z+1/4'
6 'y, x+1/2, z+1/4'
7 '-y, -x, -z'
8 'y, x, -z'
9 'x, -y+1/2, -z+1/4'
10 '-x, y+1/2, -z+1/4'
11 'x, -y, z'
12 '-x, y, z'
13 '-x, -y+1/2, -z+1/4'
14 'x, y+1/2, -z+1/4'
15 '-x, -y, z'
16 'x, y, z'
17 'y+1/2, -x, z+3/4'
18 '-y+1/2, x, z+3/4'
19 'y+1/2, -x+1/2, -z+1/2'
20 '-y+1/2, x+1/2, -z+1/2'
21 '-y+1/2, -x, z+3/4'
22 'y+1/2, x, z+3/4'
23 '-y+1/2, -x+1/2, -z+1/2'
24 'y+1/2, x+1/2, -z+1/2'
25 'x+1/2, -y, -z+3/4'
26 '-x+1/2, y, -z+3/4'
27 'x+1/2, -y+1/2, z+1/2'
28 '-x+1/2, y+1/2, z+1/2'
29 '-x+1/2, -y, -z+3/4'
30 'x+1/2, y, -z+3/4'
31 '-x+1/2, -y+1/2, z+1/2'
32 'x+1/2, y+1/2, z+1/2'
loop_
_atom_type_symbol
_atom_type_oxidation_number
Mn0+ 0
Si0+ 0
loop_
_atom_site_label
_atom_site_type_symbol
_atom_site_symmetry_multiplicity
_atom_site_Wyckoff_symbol
_atom_site_fract_x
_atom_site_fract_y
_atom_site_fract_z
_atom_site_B_iso_or_equiv
_atom_site_occupancy
_atom_site_attached_hydrogens
Mn1 Mn0+ 4 a 0 0 0 0.0153(8) 1. 0
loop_
_atom_site_aniso_label
_atom_site_aniso_type_symbol
_atom_site_aniso_U_11
_atom_site_aniso_U_22
_atom_site_aniso_U_33
_atom_site_aniso_U_12
_atom_site_aniso_U_13
_atom_site_aniso_U_23
Mn1 Mn0+ 0.0136(14) 0.0136(14) 0.019(2) 0. 0. 0.
#End of TTdata_163245-ICSD