
#(C) 2019 by FIZ Karlsruhe - Leibniz Institute for Information Infrastructure.  All rights reserved.
data_163598-ICSD
_database_code_ICSD 163598
_audit_creation_date 2009-08-01
_chemical_name_systematic
'Strontium fluoride manganese oxide (2.53/2.02/0.41/6/12.25)'
_chemical_formula_structural '(Sr F0.8 O0.1)2.526 (Mn6 O12)'
_chemical_formula_sum 'F2.0208 Mn6 O12.2526 Sr2.526'
_exptl_crystal_density_diffrn 4.74
_cell_measurement_temperature 673.
_publ_section_title

;
(Sr F0.8 (O H)0.2)2.526 (Mn6 O12): columnar rock-salt fragments inside the
todorokite-type tunnel structure
;
loop_
_citation_id
_citation_journal_full
_citation_year
_citation_journal_volume
_citation_page_first
_citation_page_last
_citation_journal_id_ASTM
primary 'Chemistry of Materials' 2007 19 1181 1189 CMATEX
loop_
_publ_author_name
'Abakumov, A.M.'
'Hadermann, J.'
'van Tendeloo, G.'
'Kovba, M.L.'
'Skolis, Yu.Ya.'
'Mudretsova, S.N.'
'Antipov, E.V.'
'Volkova, O.S.'
'Vasiliev, A.N.'
'Tristan, N.'
'Klingeler, R.'
'Buechner, B.'
_cell_length_a 9.8181(2)
_cell_length_b 9.8181(2)
_cell_length_c 2.8565(1)
_cell_angle_alpha 90.
_cell_angle_beta 90.
_cell_angle_gamma 90.
_cell_volume 275.35
_cell_formula_units_Z 1
_symmetry_space_group_name_H-M 'P 42/m'
_symmetry_Int_Tables_number 84
_refine_ls_R_factor_all 0.056
loop_
_symmetry_equiv_pos_site_id
_symmetry_equiv_pos_as_xyz
1 '-y, x, -z+1/2'
2 'y, -x, -z+1/2'
3 'x, y, -z'
4 '-x, -y, -z'
5 'y, -x, z+1/2'
6 '-y, x, z+1/2'
7 '-x, -y, z'
8 'x, y, z'
loop_
_atom_type_symbol
_atom_type_oxidation_number
Mn3+ 3.58
O2- -2
Sr2+ 2
F1- -1
O2- -2
loop_
_atom_site_label
_atom_site_type_symbol
_atom_site_symmetry_multiplicity
_atom_site_Wyckoff_symbol
_atom_site_fract_x
_atom_site_fract_y
_atom_site_fract_z
_atom_site_B_iso_or_equiv
_atom_site_occupancy
_atom_site_attached_hydrogens
Mn1 Mn3+ 2 c 0 0.5 0 0.018(3) 1 0
Mn2 Mn3+ 4 j 0.7699(4) 0.0094(7) 0 0.018(3) 1 0
O1 O2- 4 j 0.9182(13) 0.1607(17) 0 0.019(3) 1 0
O2 O2- 4 j 0.4223(14) 0.1026(15) 0 0.019(3) 1 0
O3 O2- 4 j 0.8976(19) 0.6670(14) 0 0.019(3) 1 0
#End of TTdata_163598-ICSD