
#(C) 2019 by FIZ Karlsruhe - Leibniz Institute for Information Infrastructure.  All rights reserved.
data_163908-ICSD
_database_code_ICSD 163908
_audit_creation_date 2009-08-01
_chemical_name_systematic 'Lithium titanium oxide (0.85/1/2)'
_chemical_formula_structural 'Li0.85 Ti O2'
_chemical_formula_sum 'Li0.85 O2 Ti1'
_exptl_crystal_density_diffrn 3.99
_cell_measurement_temperature 293.
_publ_section_title 'Impact of nanosizing on lithiated rutile Ti O2'
loop_
_citation_id
_citation_journal_full
_citation_year
_citation_journal_volume
_citation_page_first
_citation_page_last
_citation_journal_id_ASTM
primary 'Chemistry of Materials' 2008 20 2949 2955 CMATEX
loop_
_publ_author_name
'Borghols, W.J.H.'
'Wagemaker, M.'
'Lafont, U.'
'Kelder, E.M.'
'Mulder, F.M.'
_cell_length_a 5.078
_cell_length_b 2.951
_cell_length_c 5.022
_cell_angle_alpha 90.
_cell_angle_beta 71.7
_cell_angle_gamma 90.
_cell_volume 71.45
_cell_formula_units_Z 2
_symmetry_space_group_name_H-M 'P 1 2/m 1'
_symmetry_Int_Tables_number 10
_refine_ls_R_factor_all 0.0088
loop_
_symmetry_equiv_pos_site_id
_symmetry_equiv_pos_as_xyz
1 '-x, y, -z'
2 '-x, -y, -z'
3 'x, -y, z'
4 'x, y, z'
loop_
_atom_type_symbol
_atom_type_oxidation_number
Ti3+ 3.15
O2- -2
Li1+ 1
loop_
_atom_site_label
_atom_site_type_symbol
_atom_site_symmetry_multiplicity
_atom_site_Wyckoff_symbol
_atom_site_fract_x
_atom_site_fract_y
_atom_site_fract_z
_atom_site_B_iso_or_equiv
_atom_site_occupancy
_atom_site_attached_hydrogens
Ti1 Ti3+ 1 f 0 0.5 0.5 . 1. 0
Ti2 Ti3+ 1 g 0.5 0 0.5 . 1. 0
O1 O2- 2 m 0.242 0 0.259 . 1. 0
O2 O2- 2 n 0.27 0.5 0.747 . 1. 0
Li1 Li1+ 1 a 0 0 0 . 0.85 0
Li2 Li1+ 1 e 0.5 0.5 0 . 0.85 0
#End of TTdata_163908-ICSD