
#(C) 2019 by FIZ Karlsruhe - Leibniz Institute for Information Infrastructure.  All rights reserved.
data_182499-ICSD
_database_code_ICSD 182499
_audit_creation_date 2012-02-01
_audit_update_record 2013-08-01
_chemical_name_systematic 'Lithium - Cmca, HP, hypothetical'
_chemical_formula_structural Li
_chemical_formula_sum Li1
_exptl_crystal_density_diffrn 2.26
_publ_section_title

;
Phase stability and broken-symmetry transition of elemental lithium up to 140
GPa
;
loop_
_citation_id
_citation_journal_full
_citation_year
_citation_journal_volume
_citation_page_first
_citation_page_last
_citation_journal_id_ASTM
primary ChemPhysChem 2005 6 1703 1706 CPCHFT
loop_
_publ_author_name
'Rousseau, R.'
'Uehara, K.'
'Klug, D.D.'
'Tse, J.S.'
_cell_length_a 7.126
_cell_length_b 4.15
_cell_length_c 4.141
_cell_angle_alpha 90.
_cell_angle_beta 90.
_cell_angle_gamma 90.
_cell_volume 122.46
_cell_formula_units_Z 24
_symmetry_space_group_name_H-M 'C m c a'
_symmetry_Int_Tables_number 64
loop_
_symmetry_equiv_pos_site_id
_symmetry_equiv_pos_as_xyz
1 '-x, -y+1/2, z+1/2'
2 '-x, y+1/2, -z+1/2'
3 '-x, y, z'
4 '-x, -y, -z'
5 'x, y+1/2, -z+1/2'
6 'x, -y+1/2, z+1/2'
7 'x, -y, -z'
8 'x, y, z'
9 '-x+1/2, -y, z+1/2'
10 '-x+1/2, y, -z+1/2'
11 '-x+1/2, y+1/2, z'
12 '-x+1/2, -y+1/2, -z'
13 'x+1/2, y, -z+1/2'
14 'x+1/2, -y, z+1/2'
15 'x+1/2, -y+1/2, -z'
16 'x+1/2, y+1/2, z'
loop_
_atom_type_symbol
_atom_type_oxidation_number
Li0+ 0
loop_
_atom_site_label
_atom_site_type_symbol
_atom_site_symmetry_multiplicity
_atom_site_Wyckoff_symbol
_atom_site_fract_x
_atom_site_fract_y
_atom_site_fract_z
_atom_site_B_iso_or_equiv
_atom_site_occupancy
_atom_site_attached_hydrogens
Li1 Li0+ 8 f 0.5 0.166 0.069 . 1. 0
Li2 Li0+ 16 g 0.331 0.391 0.148 . 1. 0
#End of TTdata_182499-ICSD