
#(C) 2019 by FIZ Karlsruhe - Leibniz Institute for Information Infrastructure.  All rights reserved.
data_182963-ICSD
_database_code_ICSD 182963
_audit_creation_date 2012-08-01
_chemical_name_systematic 'Dilithium trititanate'
_chemical_formula_structural '(Li2 Ti3 O7)1.143'
_chemical_formula_sum 'Li2.286 O8.001 Ti3.429'
_chemical_name_structure_type Li.5TiO2
_exptl_crystal_density_diffrn 3.46
_cell_measurement_temperature 1373.
_publ_section_title

;
Lithium migration at high temperatures in Li4 Ti5 O12 studied by neutron
diffraction
;
loop_
_citation_id
_citation_journal_full
_citation_year
_citation_journal_volume
_citation_page_first
_citation_page_last
_citation_journal_id_ASTM
primary 'Chemistry of Materials' 2011 23 2753 2759 CMATEX
loop_
_publ_author_name
'Laumann, A.'
'Boysen, H.'
'Bremholm, M.'
'Fehr, K.T.'
'Hoelzel, M.'
'Holzapfel, M.'
_cell_length_a 5.09798(6)
_cell_length_b 9.70951(11)
_cell_length_c 2.98604(3)
_cell_angle_alpha 90.
_cell_angle_beta 90.
_cell_angle_gamma 90.
_cell_volume 147.81
_cell_formula_units_Z 1
_symmetry_space_group_name_H-M 'P b n m'
_symmetry_Int_Tables_number 62
_refine_ls_R_factor_all 0.0664
loop_
_symmetry_equiv_pos_site_id
_symmetry_equiv_pos_as_xyz
1 '-x+1/2, y+1/2, z'
2 'x, y, -z+1/2'
3 'x+1/2, -y+1/2, z+1/2'
4 '-x, -y, -z'
5 'x+1/2, -y+1/2, -z'
6 '-x, -y, z+1/2'
7 '-x+1/2, y+1/2, -z+1/2'
8 'x, y, z'
loop_
_atom_type_symbol
_atom_type_oxidation_number
O2- -2
Li1+ 1
Ti4+ 4
O2- -2
Li1+ 1
loop_
_atom_site_label
_atom_site_type_symbol
_atom_site_symmetry_multiplicity
_atom_site_Wyckoff_symbol
_atom_site_fract_x
_atom_site_fract_y
_atom_site_fract_z
_atom_site_B_iso_or_equiv
_atom_site_occupancy
_atom_site_attached_hydrogens
O1 O2- 4 c 0.6756 0.2742 0.25 0.0367(6) 1. 0
Li1 Li1+ 4 c 0.9708 0.1404 0.25 0.0336(9) 0.13 0
Ti1 Ti4+ 4 c 0.9708 0.1404 0.25 0.0336(9) 0.86 0
O2 O2- 4 c 0.2037 0.9671 0.25 0.0316(5) 1. 0
Li2 Li1+ 4 c 0.9362 0.4371 0.25 0.090(15) 0.22 0
Li3 Li1+ 4 c 0.5525 0.0375 0.25 0.060(9) 0.22 0
#End of TTdata_182963-ICSD