
#(C) 2019 by FIZ Karlsruhe - Leibniz Institute for Information Infrastructure.  All rights reserved.
data_186707-ICSD
_database_code_ICSD 186707
_audit_creation_date 2013-08-01
_chemical_name_systematic 'Titanium dioxide'
_chemical_formula_structural 'Ti O2'
_chemical_formula_sum 'O2 Ti1'
_exptl_crystal_density_diffrn 3.84
_cell_measurement_temperature 295.
_publ_section_title

;
Synthesis and structure analysis of a new titanium oxide having an intergrowth
structure between ramsdellite-type and calcium-ferrite-type
;
loop_
_citation_id
_citation_journal_full
_citation_year
_citation_journal_volume
_citation_page_first
_citation_page_last
_citation_journal_id_ASTM
primary 'Journal of Physics and Chemistry of Solids' 2012 73 1460 1462 JPCSAW
loop_
_publ_author_name
'Mamiya, M.'
'Kataoka, K.'
'Kikuchi, S.'
'Terajima, Y.'
'Tokiwa, K.'
'Akimoto, J.'
_cell_length_a 17.513(25)
_cell_length_b 10.651(7)
_cell_length_c 2.962(3)
_cell_angle_alpha 90.
_cell_angle_beta 90.
_cell_angle_gamma 90.
_cell_volume 552.5
_cell_formula_units_Z 16
_symmetry_space_group_name_H-M 'P n a m'
_symmetry_Int_Tables_number 62
_refine_ls_R_factor_all 0.0961
loop_
_symmetry_equiv_pos_site_id
_symmetry_equiv_pos_as_xyz
1 'x+1/2, -y+1/2, z'
2 'x, y, -z+1/2'
3 '-x+1/2, y+1/2, z+1/2'
4 '-x, -y, -z'
5 '-x+1/2, y+1/2, -z'
6 '-x, -y, z+1/2'
7 'x+1/2, -y+1/2, -z+1/2'
8 'x, y, z'
loop_
_atom_type_symbol
_atom_type_oxidation_number
Ti4+ 4
O2- -2
loop_
_atom_site_label
_atom_site_type_symbol
_atom_site_symmetry_multiplicity
_atom_site_Wyckoff_symbol
_atom_site_fract_x
_atom_site_fract_y
_atom_site_fract_z
_atom_site_B_iso_or_equiv
_atom_site_occupancy
_atom_site_attached_hydrogens
Ti1 Ti4+ 4 c 0.09904(14) 0.2152(3) 0.25 0.0041(6) 1. 0
Ti2 Ti4+ 4 c 0.16959(14) 0.4982(2) 0.75 0.0041(6) 1. 0
Ti3 Ti4+ 4 c 0.92157(15) 0.3028(2) 0.75 0.0041(6) 1. 0
Ti4 Ti4+ 4 c 0.14744(15) 0.9786(2) 0.75 0.0041(6) 1. 0
O1 O2- 4 c 0.0801(6) 0.0287(9) 0.25 0.0015(9) 1. 0
O2 O2- 4 c 0.2773(5) 0.4544(9) 0.75 0.0015(9) 1. 0
O3 O2- 4 c 0.1401(5) 0.3811(9) 0.25 0.0015(9) 1. 0
O4 O2- 4 c 0.1631(5) 0.1699(9) 0.75 0.0015(9) 1. 0
O5 O2- 4 c 0.9352(5) 0.4187(9) 0.25 0.0015(9) 1. 0
O6 O2- 4 c 0.1098(5) 0.8118(9) 0.75 0.0015(9) 1. 0
O7 O2- 4 c 0.0269(5) 0.2478(9) 0.75 0.0015(9) 1. 0
O8 O2- 4 c 0.1819(5) 0.6113(9) 0.25 0.0015(9) 1. 0
#End of TTdata_186707-ICSD