
#(C) 2019 by FIZ Karlsruhe - Leibniz Institute for Information Infrastructure.  All rights reserved.
data_186842-ICSD
_database_code_ICSD 186842
_audit_creation_date 2013-08-01
_chemical_name_systematic 'Dilithium manganate(IV)'
_chemical_formula_structural 'Li2 (Mn O3)'
_chemical_formula_sum 'Li2 Mn1 O3'
_chemical_name_structure_type Li2SnO3
_exptl_crystal_density_diffrn 3.89
_publ_section_title

;
Influence of Ru substitution on Li-rich 0.55(Li2 Mn O3) * 0.45(Li Ni1/3 Co1/3
Mn1/3 O2) cathode for Li-ion batteries
;
loop_
_citation_id
_citation_journal_full
_citation_year
_citation_journal_volume
_citation_page_first
_citation_page_last
_citation_journal_id_ASTM
primary 'Electrochimica Acta' 2012 80 187 195 ELCAAV
loop_
_publ_author_name
'Song, Bohang'
'Lai, Man On'
'Lu, Li'
_cell_length_a 4.927(6)
_cell_length_b 8.511(3)
_cell_length_c 9.624(5)
_cell_angle_alpha 90
_cell_angle_beta 99.08(5)
_cell_angle_gamma 90
_cell_volume 398.51
_cell_formula_units_Z 8
_symmetry_space_group_name_H-M 'C 1 2/c 1'
_symmetry_Int_Tables_number 15
_refine_ls_R_factor_all 0.1152
loop_
_symmetry_equiv_pos_site_id
_symmetry_equiv_pos_as_xyz
1 'x, -y, z+1/2'
2 '-x, -y, -z'
3 '-x, y, -z+1/2'
4 'x, y, z'
5 'x+1/2, -y+1/2, z+1/2'
6 '-x+1/2, -y+1/2, -z'
7 '-x+1/2, y+1/2, -z+1/2'
8 'x+1/2, y+1/2, z'
loop_
_atom_type_symbol
_atom_type_oxidation_number
Li1+ 1
Mn4+ 4
Li1+ 1
O2- -2
loop_
_atom_site_label
_atom_site_type_symbol
_atom_site_symmetry_multiplicity
_atom_site_Wyckoff_symbol
_atom_site_fract_x
_atom_site_fract_y
_atom_site_fract_z
_atom_site_B_iso_or_equiv
_atom_site_occupancy
_atom_site_attached_hydrogens
Li1 Li1+ 8 f 0.241(9) 0.089(2) 0.010(7) 1.7 1. 0
Li2 Li1+ 4 d 0.25 0.25 0.5 1.1 1. 0
Li3 Li1+ 4 e 0 0.757(1) 0.25 1.1 0.875 0
Mn1 Mn4+ 4 e 0 0.757(1) 0.25 1.1 0.125 0
Mn2 Mn4+ 4 e 0 0.4101(3) 0.25 0.1 1. 0
Mn3 Mn4+ 4 e 0 0.0757(3) 0.25 0.12 0.875 0
Li4 Li1+ 4 e 0 0.0757(3) 0.25 0.12 0.125 0
O1 O2- 8 f 0.1079(9) 0.256(2) 0.1364(5) 0.65 1. 0
O2 O2- 8 f 0.141(1) 0.5655(6) 0.1371(5) 0.22 1. 0
O3 O2- 8 f 0.141(1) 0.9169(9) 0.1398(7) 1.3 1. 0
loop_
_atom_site_aniso_label
_atom_site_aniso_type_symbol
_atom_site_aniso_U_11
_atom_site_aniso_U_22
_atom_site_aniso_U_33
_atom_site_aniso_U_12
_atom_site_aniso_U_13
_atom_site_aniso_U_23
Li1 Li1+ 0. 0. 0. 0. 0. 0.
Li2 Li1+ 0. 0. 0. 0. 0. 0.
Li3 Li1+ 0. 0. 0. 0. 0. 0.
Mn1 Mn4+ 0. 0. 0. 0. 0. 0.
Mn2 Mn4+ 0.0016 0.0018 0.0006 0. 0.0008 0.
Mn3 Mn4+ 0.0031 0.0006 0.0009 0. 0.0004 0.
Li4 Li1+ 0.0031 0.0006 0.0009 0. 0.0004 0.
O1 O2- 0. 0. 0. 0. 0. 0.
O2 O2- 0. 0. 0. 0. 0. 0.
O3 O2- 0. 0. 0. 0. 0. 0.
#End of TTdata_186842-ICSD