
#(C) 2019 by FIZ Karlsruhe - Leibniz Institute for Information Infrastructure.  All rights reserved.
data_187579-ICSD
_database_code_ICSD 187579
_audit_creation_date 2013-08-01
_chemical_name_systematic 'Manganese oxide hydrate (1.136/2/1.454)'
_chemical_formula_structural 'Mn0.320 (Mn0.816 O2) (H2 O)1.454'
_chemical_formula_sum 'H2.908 Mn1.136 O3.454'
_chemical_name_mineral 'Birnessite (Cs-exchanged)'
_exptl_crystal_density_diffrn 3.85
_publ_section_title

;
A time-resolved X-ray diffraction study of Cs exchange into hexagonal
H-birnessite
;
loop_
_citation_id
_citation_journal_full
_citation_year
_citation_journal_volume
_citation_page_first
_citation_page_last
_citation_journal_id_ASTM
primary 'American Mineralogist' 2013 98 671 679 AMMIAY
loop_
_publ_author_name
'Fleeger, C.R.'
'Heaney, P.J.'
'Post, J.E.'
_cell_length_a 2.85844(3)
_cell_length_b 2.85844(3)
_cell_length_c 7.35841(9)
_cell_angle_alpha 90.
_cell_angle_beta 90.
_cell_angle_gamma 120.
_cell_volume 52.07
_cell_formula_units_Z 1
_symmetry_space_group_name_H-M 'P -3'
_symmetry_Int_Tables_number 147
_refine_ls_R_factor_all 0.0144
loop_
_symmetry_equiv_pos_site_id
_symmetry_equiv_pos_as_xyz
1 'x-y, x, -z'
2 'y, -x+y, -z'
3 '-x, -y, -z'
4 '-x+y, -x, z'
5 '-y, x-y, z'
6 'x, y, z'
loop_
_atom_type_symbol
_atom_type_oxidation_number
Mn0+ 0
O0+ 0
Mn0+ 0
H0+ 0
loop_
_atom_site_label
_atom_site_type_symbol
_atom_site_symmetry_multiplicity
_atom_site_Wyckoff_symbol
_atom_site_fract_x
_atom_site_fract_y
_atom_site_fract_z
_atom_site_B_iso_or_equiv
_atom_site_occupancy
_atom_site_attached_hydrogens
Mn1 Mn0+ 1 a 0 0 0 0.015 0.816(5) 0
O1 O0+ 2 d 0.3333 0.6667 0.12060(1) 0.02477 1. 0
O2 O0+ 2 d 0.6667 0.3333 0.46532(5) 0.08 0.727(7) 0
Mn2 Mn0+ 2 c 0 0 0.71783(1) 0.015 0.160(7) 0
#End of TTdata_187579-ICSD