
#(C) 2019 by FIZ Karlsruhe - Leibniz Institute for Information Infrastructure.  All rights reserved.
data_188902-ICSD
_database_code_ICSD 188902
_audit_creation_date 2014-02-01
_audit_update_record 2016-02-01
_chemical_name_systematic 'Dimanganese(III) manganese(II) tetraoxide'
_chemical_formula_structural 'Mn3 O4'
_chemical_formula_sum 'Mn3 O4'
_chemical_name_structure_type CaMn2O4
_exptl_crystal_density_diffrn 5.32
_cell_measurement_temperature 60.
_publ_section_title
'Giant atomic displacement at a magnetic phase transition in metastable Mn3 O4'
loop_
_citation_id
_citation_journal_full
_citation_year
_citation_journal_volume
_citation_page_first
_citation_page_last
_citation_journal_id_ASTM
primary 'Physical Review B: Condensed Matter and Materials Physics' 2013 87
014417-1 014417-6 PRBMDO
loop_
_publ_author_name
'Hirai, S.'
'dos Santos, A.M.'
'Shapiro, M.C.'
'Molaison, J.J.'
'Pradhan, N.'
'Guthrie, M.'
'Tulk, C.A.'
'Fisher, I.R.'
'Mao, W.L.'
_cell_length_a 3.032(1)
_cell_length_b 9.842(6)
_cell_length_c 9.568(4)
_cell_angle_alpha 90.
_cell_angle_beta 90.
_cell_angle_gamma 90.
_cell_volume 285.52
_cell_formula_units_Z 4
_symmetry_space_group_name_H-M 'P b c m'
_symmetry_Int_Tables_number 57
_refine_ls_R_factor_all 0.0246
loop_
_symmetry_equiv_pos_site_id
_symmetry_equiv_pos_as_xyz
1 'x, -y+1/2, z+1/2'
2 '-x, y+1/2, z'
3 'x, y, -z+1/2'
4 '-x, -y, -z'
5 '-x, y+1/2, -z+1/2'
6 'x, -y+1/2, -z'
7 '-x, -y, z+1/2'
8 'x, y, z'
loop_
_atom_type_symbol
_atom_type_oxidation_number
Mn3+ 3
Mn2+ 2
O2- -2
loop_
_atom_site_label
_atom_site_type_symbol
_atom_site_symmetry_multiplicity
_atom_site_Wyckoff_symbol
_atom_site_fract_x
_atom_site_fract_y
_atom_site_fract_z
_atom_site_B_iso_or_equiv
_atom_site_occupancy
_atom_site_attached_hydrogens
Mn1 Mn3+ 8 e 0.308(8) 0.114(2) 0.070(3) 0.170(4) 1. 0
Mn2 Mn2+ 4 d 0.815(8) 0.137(3) 0.25 0.018(5) 1. 0
O1 O2- 4 c 0.824(6) 0.25 0 0.0064 1. 0
O2 O2- 4 d 0.332(4) 0.194(2) 0.25 0.0064 1. 0
O3 O2- 8 e 0.800(2) 0.968(1) 0.105(2) 0.0064 1. 0
#End of TTdata_188902-ICSD