
#(C) 2019 by FIZ Karlsruhe - Leibniz Institute for Information Infrastructure.  All rights reserved.
data_189320-ICSD
_database_code_ICSD 189320
_audit_creation_date 2014-02-01
_chemical_name_systematic 'Titanium dioxide'
_chemical_formula_structural 'Ti O2'
_chemical_formula_sum 'O2 Ti1'
_chemical_name_structure_type PbO2-alpha
_exptl_crystal_density_diffrn 4.19
_cell_measurement_temperature 0.
_cell_measurement_pressure 0.
_publ_section_title

;
Structural phase transition and mechanical properties of Ti O2 under high
pressure
;
loop_
_citation_id
_citation_journal_full
_citation_year
_citation_journal_volume
_citation_page_first
_citation_page_last
_citation_journal_id_ASTM
primary 'Physica Status Solidi B: Basic Solid State Physics' 2013 250 2206 2214
PSSBBD
loop_
_publ_author_name
'Fu, Zhao'
'Liang, Yongcheng'
'Wang, Shiming'
'Zhong, Zheng'
_cell_length_a 4.588
_cell_length_b 5.59
_cell_length_c 4.933
_cell_angle_alpha 90.
_cell_angle_beta 90.
_cell_angle_gamma 90.
_cell_volume 126.52
_cell_formula_units_Z 4
_symmetry_space_group_name_H-M 'P b c n'
_symmetry_Int_Tables_number 60
loop_
_symmetry_equiv_pos_site_id
_symmetry_equiv_pos_as_xyz
1 'x, -y, z+1/2'
2 '-x+1/2, y+1/2, z'
3 'x+1/2, y+1/2, -z+1/2'
4 '-x, -y, -z'
5 '-x, y, -z+1/2'
6 'x+1/2, -y+1/2, -z'
7 '-x+1/2, -y+1/2, z+1/2'
8 'x, y, z'
loop_
_atom_type_symbol
_atom_type_oxidation_number
Ti4+ 4
O2- -2
loop_
_atom_site_label
_atom_site_type_symbol
_atom_site_symmetry_multiplicity
_atom_site_Wyckoff_symbol
_atom_site_fract_x
_atom_site_fract_y
_atom_site_fract_z
_atom_site_B_iso_or_equiv
_atom_site_occupancy
_atom_site_attached_hydrogens
Ti1 Ti4+ 4 c 0 0.177 0.25 . 1. 0
O1 O2- 8 d 0.271 0.381 0.419 . 1. 0
#End of TTdata_189320-ICSD