
#(C) 2019 by FIZ Karlsruhe - Leibniz Institute for Information Infrastructure.  All rights reserved.
data_189319-ICSD
_database_code_ICSD 189319
_audit_creation_date 2014-02-01
_chemical_name_systematic 'Titanium dioxide'
_chemical_formula_structural 'Ti O2'
_chemical_formula_sum 'O2 Ti1'
_chemical_name_structure_type Brookite-TiO2
_exptl_crystal_density_diffrn 4.
_cell_measurement_temperature 0.
_cell_measurement_pressure 0.
_publ_section_title

;
Structural phase transition and mechanical properties of Ti O2 under high
pressure
;
loop_
_citation_id
_citation_journal_full
_citation_year
_citation_journal_volume
_citation_page_first
_citation_page_last
_citation_journal_id_ASTM
primary 'Physica Status Solidi B: Basic Solid State Physics' 2013 250 2206 2214
PSSBBD
loop_
_publ_author_name
'Fu, Zhao'
'Liang, Yongcheng'
'Wang, Shiming'
'Zhong, Zheng'
_cell_length_a 9.278
_cell_length_b 5.515
_cell_length_c 5.184
_cell_angle_alpha 90.
_cell_angle_beta 90.
_cell_angle_gamma 90.
_cell_volume 265.26
_cell_formula_units_Z 8
_symmetry_space_group_name_H-M 'P b c a'
_symmetry_Int_Tables_number 61
loop_
_symmetry_equiv_pos_site_id
_symmetry_equiv_pos_as_xyz
1 'x+1/2, y, -z+1/2'
2 'x, -y+1/2, z+1/2'
3 '-x+1/2, y+1/2, z'
4 '-x, -y, -z'
5 '-x+1/2, -y, z+1/2'
6 '-x, y+1/2, -z+1/2'
7 'x+1/2, -y+1/2, -z'
8 'x, y, z'
loop_
_atom_type_symbol
_atom_type_oxidation_number
Ti4+ 4
O2- -2
loop_
_atom_site_label
_atom_site_type_symbol
_atom_site_symmetry_multiplicity
_atom_site_Wyckoff_symbol
_atom_site_fract_x
_atom_site_fract_y
_atom_site_fract_z
_atom_site_B_iso_or_equiv
_atom_site_occupancy
_atom_site_attached_hydrogens
Ti1 Ti4+ 8 c 0.129 0.092 0.862 . 1. 0
O1 O2- 8 c 0.23 0.108 0.536 . 1. 0
O2 O2- 8 c 0.01 0.149 0.183 . 1. 0
#End of TTdata_189319-ICSD