
#(C) 2019 by FIZ Karlsruhe - Leibniz Institute for Information Infrastructure.  All rights reserved.
data_19017-ICSD
_database_code_ICSD 19017
_audit_creation_date 1980-01-01
_audit_update_record 2007-08-01
_chemical_name_systematic 'Titanium oxide (4/7)'
_chemical_formula_structural 'Ti4 O7'
_chemical_formula_sum 'O7 Ti4'
_chemical_name_structure_type V4O7
_exptl_crystal_density_diffrn 4.34
_cell_measurement_temperature 140.
_publ_section_title
'Structural aspect of the metal-insulator transition in Ti4 O7'
loop_
_citation_id
_citation_journal_full
_citation_year
_citation_journal_volume
_citation_page_first
_citation_page_last
_citation_journal_id_ASTM
primary 'Journal of Solid State Chemistry' 1973 6 213 221 JSSCBI
loop_
_publ_author_name
'Marezio, M.'
'McWhan, D.B.'
'Dernier, P.D.'
'Remeika, J.P.'
_cell_length_a 5.590(1)
_cell_length_b 7.128(1)
_cell_length_c 12.483(2)
_cell_angle_alpha 95.03(1)
_cell_angle_beta 95.34(1)
_cell_angle_gamma 108.89(1)
_cell_volume 464.88
_cell_formula_units_Z 4
_symmetry_space_group_name_H-M 'A -1'
_symmetry_Int_Tables_number 2
_refine_ls_R_factor_all 0.021
loop_
_symmetry_equiv_pos_site_id
_symmetry_equiv_pos_as_xyz
1 '-x, -y, -z'
2 'x, y, z'
3 '-x, -y+1/2, -z+1/2'
4 'x, y+1/2, z+1/2'
loop_
_atom_type_symbol
_atom_type_oxidation_number
Ti0+ 0
O0+ 0
loop_
_atom_site_label
_atom_site_type_symbol
_atom_site_symmetry_multiplicity
_atom_site_Wyckoff_symbol
_atom_site_fract_x
_atom_site_fract_y
_atom_site_fract_z
_atom_site_B_iso_or_equiv
_atom_site_occupancy
_atom_site_attached_hydrogens
Ti1 Ti0+ 4 i 0.2173(2) 0.1560(2) 0.06404(9) . 1. 0
Ti2 Ti0+ 4 i 0.2172(2) 0.6549(2) 0.06596(9) . 1. 0
Ti3 Ti0+ 4 i 0.6816(2) 0.4424(2) 0.20048(9) . 1. 0
Ti4 Ti0+ 4 i 0.6875(2) 0.9425(2) 0.19988(9) . 1. 0
O1 O0+ 4 i 0.1077(7) 0.8618(6) 0.0156(3) . 1. 0
O2 O0+ 4 i 0.58711(8) 0.7925(6) 0.0567(3) . 1. 0
O3 O0+ 4 i 0.8538(7) 0.4967(6) 0.0800(3) . 1. 0
O4 O0+ 4 i 0.3233(7) 0.4400(6) 0.1395(3) . 1. 0
O5 O0+ 4 i 0.5280(7) 0.1425(6) 0.1659(3) . 1. 0
O6 O0+ 4 i 0.0388(7) 0.0691(6) 0.1972(3) . 1. 0
O7 O0+ 4 i 0.2925(7) 0.7854(6) 0.2234(3) . 1. 0
loop_
_atom_site_aniso_label
_atom_site_aniso_type_symbol
_atom_site_aniso_beta_11
_atom_site_aniso_beta_22
_atom_site_aniso_beta_33
_atom_site_aniso_beta_12
_atom_site_aniso_beta_13
_atom_site_aniso_beta_23
Ti1 Ti0+ 0.0061(5) 0.0028(3) 0.00064(8) 0.0021(3) 0.0007(1) 0.0003(1)
Ti2 Ti0+ 0.0054(5) 0.0028(3) 0.00057(8) 0.0010(3) 0.0003(1) 0.0003(1)
Ti3 Ti0+ 0.0054(5) 0.0025(4) 0.00101(9) 0.0009(3) 0.0009(1) 0.0005(1)
Ti4 Ti0+ 0.0059(5) 0.0025(4) 0.00069(8) 0.0017(3) 0.0001(1) 0.0002(1)
O1 O0+ 0.0050(12) 0.0053(9) 0.0016(3) 0.0017(9) 0.0006(5) -.0002(4)
O2 O0+ 0.0076(13) 0.0023(8) 0.0015(2) 0.0014(8) -.0005(5) 0.0002(3)
O3 O0+ 0.0051(13) 0.0037(9) 0.0016(2) -.0002(9) -.0001(5) 0.0003(4)
O4 O0+ 0.0073(14) 0.0039(8) 0.0009(3) 0.0001(8) -.0005(5) 0.0004(4)
O5 O0+ 0.0037(13) 0.0052(9) 0.0013(3) 0.0005(9) -.0001(5) 0.0006(4)
O6 O0+ 0.0076(14) 0.0037(8) 0.0012(3) 0.0020(8) 0.0004(5) 0.0001(4)
O7 O0+ 0.0058(13) 0.0033(8) 0.0010(3) 0.0016(8) -.0001(4) -.0003(4)
#End of TTdata_19017-ICSD