
#(C) 2019 by FIZ Karlsruhe - Leibniz Institute for Information Infrastructure.  All rights reserved.
data_19080-ICSD
_database_code_ICSD 19080
_audit_creation_date 1980-01-01
_audit_update_record 2012-08-01
_chemical_name_systematic 'Manganese(III) fluoride'
_chemical_formula_structural 'Mn F3'
_chemical_formula_sum 'F3 Mn1'
_chemical_name_structure_type MnF3
_exptl_crystal_density_diffrn 3.7
_publ_section_title 'The crystal structure of manganese trifluoride, Mn F3'
loop_
_citation_id
_citation_journal_full
_citation_year
_citation_journal_volume
_citation_page_first
_citation_page_last
_citation_journal_id_ASTM
primary 'Acta Crystallographica' 1957 10 345 351 ACCRA9
loop_
_publ_author_name
'Hepworth, M.A.'
'Jack, K.H.'
_cell_length_a 8.904(3)
_cell_length_b 5.037(2)
_cell_length_c 13.448(5)
_cell_angle_alpha 90.
_cell_angle_beta 92.74(4)
_cell_angle_gamma 90.
_cell_volume 602.45
_cell_formula_units_Z 12
_symmetry_space_group_name_H-M 'C 1 2/c 1'
_symmetry_Int_Tables_number 15
loop_
_symmetry_equiv_pos_site_id
_symmetry_equiv_pos_as_xyz
1 'x, -y, z+1/2'
2 '-x, -y, -z'
3 '-x, y, -z+1/2'
4 'x, y, z'
5 'x+1/2, -y+1/2, z+1/2'
6 '-x+1/2, -y+1/2, -z'
7 '-x+1/2, y+1/2, -z+1/2'
8 'x+1/2, y+1/2, z'
loop_
_atom_type_symbol
_atom_type_oxidation_number
Mn3+ 3
F1- -1
loop_
_atom_site_label
_atom_site_type_symbol
_atom_site_symmetry_multiplicity
_atom_site_Wyckoff_symbol
_atom_site_fract_x
_atom_site_fract_y
_atom_site_fract_z
_atom_site_B_iso_or_equiv
_atom_site_occupancy
_atom_site_attached_hydrogens
Mn1 Mn3+ 4 a 0 0 0 2.43 1. 0
Mn2 Mn3+ 8 f 0.167(3) 0.500(3) 0.333(3) 2.43 1. 0
F1 F1- 4 e 0 0.617(3) 0.25 2.43 1. 0
F2 F1- 8 f 0.310(3) 0.714(3) 0.244(3) 2.43 1. 0
F3 F1- 8 f 0.167(3) 0.117(3) 0.583(3) 2.43 1. 0
F4 F1- 8 f 0.477(3) 0.214(3) 0.577(3) 2.43 1. 0
F5 F1- 8 f 0.143(3) 0.214(3) 0.911(3) 2.43 1. 0
#End of TTdata_19080-ICSD