
#(C) 2019 by FIZ Karlsruhe - Leibniz Institute for Information Infrastructure.  All rights reserved.
data_195615-ICSD
_database_code_ICSD 195615
_audit_creation_date 2016-02-01
_chemical_name_systematic 'Lithium titanium oxide (0.47/1/2)'
_chemical_formula_structural 'Li0.47 Ti O2'
_chemical_formula_sum 'Li0.47 O2 Ti1'
_chemical_name_mineral Ramsdellite
_exptl_crystal_density_diffrn 3.87
_publ_section_title

;
Synthesis and lithium insertion properties of ramsdellite Lix Ti O2 anode
materials
;
loop_
_citation_id
_citation_journal_full
_citation_year
_citation_journal_volume
_citation_page_first
_citation_page_last
_citation_journal_id_ASTM
primary 'Materials Research Bulletin' 2015 70 748 752 MRBUAC
loop_
_publ_author_name
'Tsuyumoto, Isao'
'Moriguchi, Takumi'
_cell_length_a 9.6076
_cell_length_b 2.9514
_cell_length_c 5.0276
_cell_angle_alpha 90.
_cell_angle_beta 90.
_cell_angle_gamma 90.
_cell_volume 142.56
_cell_formula_units_Z 4
_symmetry_space_group_name_H-M 'P n m a'
_symmetry_Int_Tables_number 62
loop_
_symmetry_equiv_pos_site_id
_symmetry_equiv_pos_as_xyz
1 'x+1/2, y, -z+1/2'
2 'x, -y+1/2, z'
3 '-x+1/2, y+1/2, z+1/2'
4 '-x, -y, -z'
5 '-x+1/2, -y, z+1/2'
6 '-x, y+1/2, -z'
7 'x+1/2, -y+1/2, -z+1/2'
8 'x, y, z'
loop_
_atom_type_symbol
_atom_type_oxidation_number
Li1+ 1
Ti3+ 3.53
O2- -2
loop_
_atom_site_label
_atom_site_type_symbol
_atom_site_symmetry_multiplicity
_atom_site_Wyckoff_symbol
_atom_site_fract_x
_atom_site_fract_y
_atom_site_fract_z
_atom_site_B_iso_or_equiv
_atom_site_occupancy
_atom_site_attached_hydrogens
Li1 Li1+ 4 c 0.417 0.25 -0.061 . 0.47 0
Ti1 Ti3+ 4 c 0.141 0.25 -0.024 . 1. 0
O1 O2- 4 c 0.274 0.25 0.691 . 1. 0
O2 O2- 4 c -0.035 0.25 0.186 . 1. 0
#End of TTdata_195615-ICSD