
#(C) 2019 by FIZ Karlsruhe - Leibniz Institute for Information Infrastructure.  All rights reserved.
data_202725-ICSD
_database_code_ICSD 202725
_audit_creation_date 1989-12-04
_audit_update_record 2007-08-01
_chemical_name_systematic 'Hexamanganese(IV) oxide 3.16-hydrate'
_chemical_formula_structural 'Mn6 O12 (H2 O)3.16'
_chemical_formula_sum 'H6.32 Mn6 O15.16'
_chemical_name_mineral Todorokite
_exptl_crystal_density_diffrn 3.63
_publ_section_title 'Rietveld refinement of the todorokite structure'
loop_
_citation_id
_citation_journal_full
_citation_year
_citation_journal_volume
_citation_page_first
_citation_page_last
_citation_journal_id_ASTM
primary 'American Mineralogist' 1988 73 861 869 AMMIAY
loop_
_publ_author_name
'Post, J.E.'
'Bish, D.L.'
_cell_length_a 9.764(1)
_cell_length_b 2.8416(4)
_cell_length_c 9.551(1)
_cell_angle_alpha 90.
_cell_angle_beta 94.06(1)
_cell_angle_gamma 90.
_cell_volume 264.33
_cell_formula_units_Z 1
_symmetry_space_group_name_H-M 'P 1 2/m 1'
_symmetry_Int_Tables_number 10
_refine_ls_R_factor_all 0.113
loop_
_symmetry_equiv_pos_site_id
_symmetry_equiv_pos_as_xyz
1 '-x, y, -z'
2 '-x, -y, -z'
3 'x, -y, z'
4 'x, y, z'
loop_
_atom_type_symbol
_atom_type_oxidation_number
Mn4+ 4
O2- -2
H1+ 1
loop_
_atom_site_label
_atom_site_type_symbol
_atom_site_symmetry_multiplicity
_atom_site_Wyckoff_symbol
_atom_site_fract_x
_atom_site_fract_y
_atom_site_fract_z
_atom_site_B_iso_or_equiv
_atom_site_occupancy
_atom_site_attached_hydrogens
Mn1 Mn4+ 1 e 0.5 0.5 0 0.8 1. 0
Mn2 Mn4+ 2 m 0.764(1) 0 0.002(1) 0.8 1. 0
Mn3 Mn4+ 1 c 0 0 0.5 0.8 1. 0
Mn4 Mn4+ 2 n 0.974(1) 0.5 0.765(1) 0.8 1. 0
O1 O2- 2 n 0.178(2) 0.5 0.119(2) 1. 1. 0
O2 O2- 2 m 0.418(2) 0 0.079(2) 1. 1. 0
O3 O2- 2 n 0.665(2) 0.5 0.090(2) 1. 1. 0
O4 O2- 2 m 0.917(2) 0 0.150(2) 1. 1. 0
O5 O2- 2 n 0.913(2) 0.5 0.407(2) 1. 1. 0
O6 O2- 2 m 0.880(2) 0 0.649(2) 1. 1. 0
O7 O2- 2 m 0.363(6) 0 0.353(6) 5. 0.92 0
O8 O2- 2 n 0.696(6) 0.5 0.380(6) 5. 0.42 0
O9 O2- 1 h 0.5 0.5 0.5 5. 0.48 0
#End of TTdata_202725-ICSD