
#(C) 2019 by FIZ Karlsruhe - Leibniz Institute for Information Infrastructure.  All rights reserved.
data_202897-ICSD
_database_code_ICSD 202897
_audit_creation_date 1990-06-08
_chemical_name_systematic 'Lithium titanium oxide (2.02/3.43/8)'
_chemical_formula_structural 'Li2.03 Ti3.43 O8'
_chemical_formula_sum 'Li2.03 O8 Ti3.43'
_exptl_crystal_density_diffrn 3.61
_publ_section_title

;
Refinement of the Lithium Distribution in Li2 Ti O7 Using High-Resolution
Powder Neutron Diffraction
;
loop_
_citation_id
_citation_journal_full
_citation_year
_citation_journal_volume
_citation_page_first
_citation_page_last
_citation_journal_id_ASTM
primary 'Journal of Solid State Chemistry' 1989 78 170 177 JSSCBI
loop_
_publ_author_name
'Abrahams, I.'
'Bruce, P.G.'
'David, W.I.F.'
'West, A.R.'
_cell_length_a 9.5423(1)
_cell_length_b 2.9438(1)
_cell_length_c 5.0136(1)
_cell_angle_alpha 90.
_cell_angle_beta 90.
_cell_angle_gamma 90.
_cell_volume 140.84
_cell_formula_units_Z 1
_symmetry_space_group_name_H-M 'P n m a'
_symmetry_Int_Tables_number 62
_refine_ls_R_factor_all 0.064
loop_
_symmetry_equiv_pos_site_id
_symmetry_equiv_pos_as_xyz
1 'x+1/2, y, -z+1/2'
2 'x, -y+1/2, z'
3 '-x+1/2, y+1/2, z+1/2'
4 '-x, -y, -z'
5 '-x+1/2, -y, z+1/2'
6 '-x, y+1/2, -z'
7 'x+1/2, -y+1/2, -z+1/2'
8 'x, y, z'
loop_
_atom_type_symbol
_atom_type_oxidation_number
Li1+ 1
Ti4+ 4
O2- -2
loop_
_atom_site_label
_atom_site_type_symbol
_atom_site_symmetry_multiplicity
_atom_site_Wyckoff_symbol
_atom_site_fract_x
_atom_site_fract_y
_atom_site_fract_z
_atom_site_B_iso_or_equiv
_atom_site_occupancy
_atom_site_attached_hydrogens
Li1 Li1+ 8 d 0.445(1) 0.181(6) -.058(2) 1.7(5) 0.124(9) 0
Li2 Li1+ 4 c 0.047(2) 0.25 0.540(3) 1.3(5) 0.14(1) 0
Li3 Li1+ 4 c 0.1422(2) 0.25 -.0316(3) . 0.12(1) 0
Ti1 Ti4+ 4 c 0.1422(2) 0.25 -.0316(3) . 0.86 0
O1 O2- 4 c 0.27298(9) 0.25 0.6701(2) . 1. 0
O2 O2- 4 c -.03206(8) 0.25 0.2045(1) . 1. 0
loop_
_atom_site_aniso_label
_atom_site_aniso_type_symbol
_atom_site_aniso_U_11
_atom_site_aniso_U_22
_atom_site_aniso_U_33
_atom_site_aniso_U_12
_atom_site_aniso_U_13
_atom_site_aniso_U_23
Li3 Li1+ 0.88(7) 0.92(6) 1.33(7) 0 -.11(4) 0
Ti1 Ti4+ 0.88(7) 0.92(6) 1.33(7) 0 -.11(4) 0
O1 O2- 1.07(3) 0.65(3) 1.32(4) 0 0.53(3) 0
O2 O2- 0.85(3) 0.73(3) 0.62(3) 0 0.07(2) 0
#End of TTdata_202897-ICSD