
#(C) 2019 by FIZ Karlsruhe - Leibniz Institute for Information Infrastructure.  All rights reserved.
data_20365-ICSD
_database_code_ICSD 20365
_audit_creation_date 1980-01-01
_audit_update_record 1984-11-02
_chemical_name_systematic 'Manganese fluoride - II'
_chemical_formula_structural 'Mn F2'
_chemical_formula_sum 'F2 Mn1'
_chemical_name_structure_type PbO2-alpha
_exptl_crystal_density_diffrn 4.
_cell_measurement_temperature 1973.
_publ_section_title

;
The phase transition of zinc and manganese fluorides at high pressures and
temperatures
;
loop_
_citation_id
_citation_journal_full
_citation_year
_citation_journal_volume
_citation_page_first
_citation_page_last
_citation_journal_id_ASTM
primary 'Doklady Akademii Nauk SSSR' 1963 153 1310 1312 DANKAS
loop_
_publ_author_name
'Kabalkina, S.S.'
'Popova, S.V.'
_cell_length_a 4.96
_cell_length_b 5.8
_cell_length_c 5.359
_cell_angle_alpha 90.
_cell_angle_beta 90.
_cell_angle_gamma 90.
_cell_volume 154.17
_cell_formula_units_Z 4
_symmetry_space_group_name_H-M 'P b c n'
_symmetry_Int_Tables_number 60
_refine_ls_R_factor_all 0.21
loop_
_symmetry_equiv_pos_site_id
_symmetry_equiv_pos_as_xyz
1 'x, -y, z+1/2'
2 '-x+1/2, y+1/2, z'
3 'x+1/2, y+1/2, -z+1/2'
4 '-x, -y, -z'
5 '-x, y, -z+1/2'
6 'x+1/2, -y+1/2, -z'
7 '-x+1/2, -y+1/2, z+1/2'
8 'x, y, z'
loop_
_atom_type_symbol
_atom_type_oxidation_number
Mn2+ 2
F1- -1
loop_
_atom_site_label
_atom_site_type_symbol
_atom_site_symmetry_multiplicity
_atom_site_Wyckoff_symbol
_atom_site_fract_x
_atom_site_fract_y
_atom_site_fract_z
_atom_site_B_iso_or_equiv
_atom_site_occupancy
_atom_site_attached_hydrogens
Mn1 Mn2+ 4 c 0 0.15 0.25 -.4 1. 0
F1 F1- 8 d 0.25 0.42 0.41 2.59 1. 0
#End of TTdata_20365-ICSD