
#(C) 2019 by FIZ Karlsruhe - Leibniz Institute for Information Infrastructure.  All rights reserved.
data_236855-ICSD
_database_code_ICSD 236855
_audit_creation_date 2014-08-01
_chemical_name_systematic 'Oxygen - eta phase'
_chemical_formula_structural O8
_chemical_formula_sum O8
_chemical_name_structure_type O8
_exptl_crystal_density_diffrn 3.04
_cell_measurement_pressure 17500000.
_publ_section_title

;
X-ray crystallography of simple molecular solids up to megabar pressures:
application to solid oxygen and carbon dioxide
;
loop_
_citation_id
_citation_journal_full
_citation_year
_citation_journal_volume
_citation_page_first
_citation_page_last
_citation_journal_id_ASTM
primary 'Zeitschrift fuer Kristallographie - Crystalline Materials' 2014 229 135
157 ZKCMAJ
loop_
_publ_author_name
'Datchi, Frederic'
'Weck, Gunnar'
_cell_length_a 7.76(1)
_cell_length_b 5.510(3)
_cell_length_c 3.656(8)
_cell_angle_alpha 90
_cell_angle_beta 116.5(1)
_cell_angle_gamma 90
_cell_volume 139.9
_cell_formula_units_Z 2
_symmetry_space_group_name_H-M 'C 1 2/m 1'
_symmetry_Int_Tables_number 12
_refine_ls_R_factor_all 0.083
loop_
_symmetry_equiv_pos_site_id
_symmetry_equiv_pos_as_xyz
1 '-x, y, -z'
2 '-x, -y, -z'
3 'x, -y, z'
4 'x, y, z'
5 '-x+1/2, y+1/2, -z'
6 '-x+1/2, -y+1/2, -z'
7 'x+1/2, -y+1/2, z'
8 'x+1/2, y+1/2, z'
loop_
_atom_type_symbol
_atom_type_oxidation_number
O0+ 0
loop_
_atom_site_label
_atom_site_type_symbol
_atom_site_symmetry_multiplicity
_atom_site_Wyckoff_symbol
_atom_site_fract_x
_atom_site_fract_y
_atom_site_fract_z
_atom_site_B_iso_or_equiv
_atom_site_occupancy
_atom_site_attached_hydrogens
O1 O0+ 4 i 0.827(2) 0 0.173(5) 0.013(2) 1. 0
O2 O0+ 4 i 0.246(3) 0 0.190(6) 0.014(2) 1. 0
O3 O0+ 8 j 0.036(2) 0.2673(5) 0.180(4) 0.013(1) 1. 0
#End of TTdata_236855-ICSD