
#(C) 2019 by FIZ Karlsruhe - Leibniz Institute for Information Infrastructure.  All rights reserved.
data_239604-ICSD
_database_code_ICSD 239604
_audit_creation_date 2016-08-01
_chemical_name_systematic 'Lithium titanium oxide (0.5/1/2)'
_chemical_formula_structural 'Li0.5 Ti O2'
_chemical_formula_sum 'Li0.5 O2 Ti1'
_chemical_name_structure_type Li.5TiO2
_exptl_crystal_density_diffrn 3.87
_publ_section_title

;
Structural and electrochemical study of vanadium-doped Ti O2 ramsdellite with
superior lithium storage properties for lithium-ion batteries
;
loop_
_citation_id
_citation_journal_full
_citation_year
_citation_journal_volume
_citation_page_first
_citation_page_last
_citation_journal_id_ASTM
primary ChemPhysChem 2016 17 1062 1069 CPCHFT
loop_
_publ_author_name
'Perez-Flores, Juan Carlos'
'Hoelzel, Markus'
'Garcia-Alvarado, Flaviano'
'Kuhn, Alois'
_cell_length_a 5.04190(6)
_cell_length_b 9.6435(1)
_cell_length_c 2.9420(3)
_cell_angle_alpha 90.
_cell_angle_beta 90.
_cell_angle_gamma 90.
_cell_volume 143.04
_cell_formula_units_Z 4
_symmetry_space_group_name_H-M 'P b n m'
_symmetry_Int_Tables_number 62
_refine_ls_R_factor_all 0.053
loop_
_symmetry_equiv_pos_site_id
_symmetry_equiv_pos_as_xyz
1 '-x+1/2, y+1/2, z'
2 'x, y, -z+1/2'
3 'x+1/2, -y+1/2, z+1/2'
4 '-x, -y, -z'
5 'x+1/2, -y+1/2, -z'
6 '-x, -y, z+1/2'
7 '-x+1/2, y+1/2, -z+1/2'
8 'x, y, z'
loop_
_atom_type_symbol
_atom_type_oxidation_number
Li1+ 1
Ti3+ 3.5
O2- -2
loop_
_atom_site_label
_atom_site_type_symbol
_atom_site_symmetry_multiplicity
_atom_site_Wyckoff_symbol
_atom_site_fract_x
_atom_site_fract_y
_atom_site_fract_z
_atom_site_B_iso_or_equiv
_atom_site_occupancy
_atom_site_attached_hydrogens
Li1 Li1+ 4 c -0.0508(1) 0.4753(5) 0.25 2.0(1) 0.51(1) 0
Ti1 Ti3+ 4 c -0.0130(2) 0.1417(1) 0.25 0.34(2) 1. 0
O1 O2- 4 c 0.7076(1) 0.28121(7) 0.25 0.52(1) 1. 0
O2 O2- 4 c 0.2000(1) -0.0366(6) 0.25 0.33(1) 1. 0
#End of TTdata_239604-ICSD