
#(C) 2019 by FIZ Karlsruhe - Leibniz Institute for Information Infrastructure.  All rights reserved.
data_24069-ICSD
_database_code_ICSD 24069
_audit_creation_date 1986-09-24
_audit_update_record 2000-12-16
_chemical_name_systematic 'Titanium oxide (1/0.5) - delta'
_chemical_formula_structural 'Ti O0.5'
_chemical_formula_sum 'O0.5 Ti1'
_exptl_crystal_density_diffrn 4.48
_publ_section_title

;
The Crystal Structure of the So-Called delta-Titanium Oxide and Its Structural
Relation to the omega- Phases of Some Binary Alloy Systems of Titanium
;
loop_
_citation_id
_citation_journal_full
_citation_year
_citation_journal_volume
_citation_page_first
_citation_page_last
_citation_journal_id_ASTM
primary 'Acta Chemica Scandinavica ' 1959 13 415 419 ACSAA4
loop_
_publ_author_name
'Andersson, S.'
_cell_length_a 4.9915
_cell_length_b 4.9915
_cell_length_c 2.8794
_cell_angle_alpha 90.
_cell_angle_beta 90.
_cell_angle_gamma 120.
_cell_volume 62.13
_cell_formula_units_Z 3
_symmetry_space_group_name_H-M 'P 6/m m m'
_symmetry_Int_Tables_number 191
_refine_ls_R_factor_all 0.07
loop_
_symmetry_equiv_pos_site_id
_symmetry_equiv_pos_as_xyz
1 '-x, -x+y, -z'
2 'x-y, -y, -z'
3 'y, x, -z'
4 '-x+y, -x, -z'
5 '-y, x-y, -z'
6 'x, y, -z'
7 'x, x-y, -z'
8 '-x+y, y, -z'
9 '-y, -x, -z'
10 'x-y, x, -z'
11 'y, -x+y, -z'
12 '-x, -y, -z'
13 'x, x-y, z'
14 '-x+y, y, z'
15 '-y, -x, z'
16 'x-y, x, z'
17 'y, -x+y, z'
18 '-x, -y, z'
19 '-x, -x+y, z'
20 'x-y, -y, z'
21 'y, x, z'
22 '-x+y, -x, z'
23 '-y, x-y, z'
24 'x, y, z'
loop_
_atom_type_symbol
_atom_type_oxidation_number
Ti0+ 0
O0+ 0
loop_
_atom_site_label
_atom_site_type_symbol
_atom_site_symmetry_multiplicity
_atom_site_Wyckoff_symbol
_atom_site_fract_x
_atom_site_fract_y
_atom_site_fract_z
_atom_site_B_iso_or_equiv
_atom_site_occupancy
_atom_site_attached_hydrogens
Ti1 Ti0+ 1 a 0 0 0 1.2 1. 0
Ti2 Ti0+ 2 d 0.3333 0.6667 0.5 1.2 1. 0
O1 O0+ 3 f 0.5 0 0 1.2 0.5 0
#End of TTdata_24069-ICSD