
#(C) 2019 by FIZ Karlsruhe - Leibniz Institute for Information Infrastructure.  All rights reserved.
data_245891-ICSD
_database_code_ICSD 245891
_audit_creation_date 2009-02-01
_audit_update_record 2016-02-01
_chemical_name_systematic 'Dihydrogen trititanate'
_chemical_formula_structural 'H2 Ti3 O7'
_chemical_formula_sum 'H2 O7 Ti3'
_chemical_name_structure_type H2Ti3O7
_exptl_crystal_density_diffrn 3.16
_publ_section_title

;
Structure of nanosized materials by high-energy X-ray diffraction: study of
titanate nanotubes
;
loop_
_citation_id
_citation_journal_full
_citation_year
_citation_journal_volume
_citation_page_first
_citation_page_last
_citation_journal_id_ASTM
primary 'Zeitschrift fuer Kristallographie' 2007 222 612 616 ZEKRDZ
loop_
_publ_author_name
'Gateshki, M.'
'Chen Qing'
'Peng Lianmao'
'Chupas, P.'
'Petkov, V.'
_cell_length_a 16.03
_cell_length_b 3.75
_cell_length_c 9.19
_cell_angle_alpha 90
_cell_angle_beta 101.45
_cell_angle_gamma 90
_cell_volume 541.43
_cell_formula_units_Z 4
_symmetry_space_group_name_H-M 'C 1 2/m 1'
_symmetry_Int_Tables_number 12
loop_
_symmetry_equiv_pos_site_id
_symmetry_equiv_pos_as_xyz
1 '-x, y, -z'
2 '-x, -y, -z'
3 'x, -y, z'
4 'x, y, z'
5 '-x+1/2, y+1/2, -z'
6 '-x+1/2, -y+1/2, -z'
7 'x+1/2, -y+1/2, z'
8 'x+1/2, y+1/2, z'
loop_
_atom_type_symbol
_atom_type_oxidation_number
Ti4+ 4
O2- -2
H1+ 1
loop_
_atom_site_label
_atom_site_type_symbol
_atom_site_symmetry_multiplicity
_atom_site_Wyckoff_symbol
_atom_site_fract_x
_atom_site_fract_y
_atom_site_fract_z
_atom_site_B_iso_or_equiv
_atom_site_occupancy
_atom_site_attached_hydrogens
Ti1 Ti4+ 4 i 0.2339 0 0.2198 . 1. 0
Ti2 Ti4+ 4 i 0.2183 0 0.5438 . 1. 0
Ti3 Ti4+ 4 i 0.1989 0 0.8467 . 1. 0
O1 O2- 4 i 0.2094 0 0.043 . 1. 0
O2 O2- 4 i 0.1949 0 0.3257 . 1. 0
O3 O2- 4 i 0.173 0 0.6256 . 1. 0
O4 O2- 4 i 0.1337 0 0.8696 . 1. 0
O5 O2- 4 i 0.2858 0 0.1289 . 1. 0
O6 O2- 4 i 0.2602 0 0.4164 . 1. 0
O7 O2- 4 i 0.2412 0 0.744 . 1. 0
#End of TTdata_245891-ICSD