
#(C) 2019 by FIZ Karlsruhe - Leibniz Institute for Information Infrastructure.  All rights reserved.
data_247553-ICSD
_database_code_ICSD 247553
_audit_creation_date 2011-02-01
_chemical_name_systematic 'Manganese(II) titanate(IV)'
_chemical_formula_structural 'Mn (Ti O3)'
_chemical_formula_sum 'Mn1 O3 Ti1'
_chemical_name_structure_type Ilmenite-FeTiO3
_exptl_crystal_density_diffrn 4.75
_cell_measurement_temperature 295.
_publ_section_title
'Structural characterization of the Fe Ti O3 - Mn Ti O3 solid solution'
loop_
_citation_id
_citation_journal_full
_citation_year
_citation_journal_volume
_citation_page_first
_citation_page_last
_citation_journal_id_ASTM
primary 'Journal of Solid State Chemistry' 2010 183 2483 2489 JSSCBI
loop_
_publ_author_name
'Wu Xiang'
'Qin Shan'
'Dubrovinsky, L.'
_cell_length_a 5.08894(7)
_cell_length_b 5.08894(7)
_cell_length_c 14.0928(3)
_cell_angle_alpha 90.
_cell_angle_beta 90.
_cell_angle_gamma 120.
_cell_volume 316.07
_cell_formula_units_Z 6
_symmetry_space_group_name_H-M 'R -3 H'
_symmetry_Int_Tables_number 148
_refine_ls_R_factor_all 0.056
loop_
_symmetry_equiv_pos_site_id
_symmetry_equiv_pos_as_xyz
1 'x-y, x, -z'
2 'y, -x+y, -z'
3 '-x, -y, -z'
4 '-x+y, -x, z'
5 '-y, x-y, z'
6 'x, y, z'
7 'x-y+2/3, x+1/3, -z+1/3'
8 'y+2/3, -x+y+1/3, -z+1/3'
9 '-x+2/3, -y+1/3, -z+1/3'
10 '-x+y+2/3, -x+1/3, z+1/3'
11 '-y+2/3, x-y+1/3, z+1/3'
12 'x+2/3, y+1/3, z+1/3'
13 'x-y+1/3, x+2/3, -z+2/3'
14 'y+1/3, -x+y+2/3, -z+2/3'
15 '-x+1/3, -y+2/3, -z+2/3'
16 '-x+y+1/3, -x+2/3, z+2/3'
17 '-y+1/3, x-y+2/3, z+2/3'
18 'x+1/3, y+2/3, z+2/3'
loop_
_atom_type_symbol
_atom_type_oxidation_number
Mn2+ 2
Ti4+ 4
O2- -2
loop_
_atom_site_label
_atom_site_type_symbol
_atom_site_symmetry_multiplicity
_atom_site_Wyckoff_symbol
_atom_site_fract_x
_atom_site_fract_y
_atom_site_fract_z
_atom_site_B_iso_or_equiv
_atom_site_occupancy
_atom_site_attached_hydrogens
Mn1 Mn2+ 6 c 0 0 0.3584(3) 0.062(3) 1. 0
Ti1 Ti4+ 6 c 0 0 0.1467(3) 0.008(2) 1. 0
O1 O2- 18 f 0.3199(12) 0.0276(23) 0.2393(4) 0.022(2) 1. 0
#End of TTdata_247553-ICSD