
#(C) 2019 by FIZ Karlsruhe - Leibniz Institute for Information Infrastructure.  All rights reserved.
data_252823-ICSD
_database_code_ICSD 252823
_audit_creation_date 2017-08-01
_chemical_name_systematic 'Lithium trioxo-manganate(IV)'
_chemical_formula_structural 'Li2 Mn O3'
_chemical_formula_sum 'Li2 Mn1 O3'
_chemical_name_structure_type Li2MnO3
_exptl_crystal_density_diffrn 3.9
_publ_section_title

;
Structural understanding of superior battery properties of partially Ni-doped
Li2MnO3 as cathode material
;
loop_
_citation_id
_citation_journal_full
_citation_year
_citation_journal_volume
_citation_page_first
_citation_page_last
_citation_journal_id_ASTM
primary 'Journal of Physical Chemistry Letters' 2016 7 2063 2067 JPCLCD
loop_
_publ_author_name
'Matsunaga, Toshiyuki'
'Komatsu, Hideyuki'
'Shimoda, Keiji'
'Minato, Taketoshi'
'Yonemura, Masao'
'Kamiyama, Takashi'
'Kobayashi, Shunsuke'
'Kato, Takeharu'
'Hirayama, Tsukasa'
'Ikuhara, Yuichi'
'Arai, Hajime'
'Ukyo, Yoshio'
'Uchimoto, Yoshiharu'
'Ogumi, Zempachi'
_cell_length_a 4.9252(1)
_cell_length_b 8.5284(2)
_cell_length_c 5.0203(1)
_cell_angle_alpha 90
_cell_angle_beta 109.2928(1)
_cell_angle_gamma 90
_cell_volume 199.03
_cell_formula_units_Z 4
_symmetry_space_group_name_H-M 'C 1 2/m 1'
_symmetry_Int_Tables_number 12
_refine_ls_R_factor_all 0.079
loop_
_symmetry_equiv_pos_site_id
_symmetry_equiv_pos_as_xyz
1 '-x, y, -z'
2 '-x, -y, -z'
3 'x, -y, z'
4 'x, y, z'
5 '-x+1/2, y+1/2, -z'
6 '-x+1/2, -y+1/2, -z'
7 'x+1/2, -y+1/2, z'
8 'x+1/2, y+1/2, z'
loop_
_atom_type_symbol
_atom_type_oxidation_number
Li1+ 1
Mn4+ 4
Li1+ 1
Mn4+ 4
O2- -2
loop_
_atom_site_label
_atom_site_type_symbol
_atom_site_symmetry_multiplicity
_atom_site_Wyckoff_symbol
_atom_site_fract_x
_atom_site_fract_y
_atom_site_fract_z
_atom_site_B_iso_or_equiv
_atom_site_occupancy
_atom_site_attached_hydrogens
Li1 Li1+ 2 b 0 0.5 0 0.469 0.7464 0
Mn1 Mn4+ 2 b 0 0.5 0 0.469 0.2536 0
Li2 Li1+ 2 c 0 0 0.5 1.52 1. 0
Li3 Li1+ 4 h 0 0.6551(2) 0.5 1.52(1) 1. 0
Li4 Li1+ 4 g 0 0.16625(2) 0 0.469(6) 0.1188(2) 0
Mn2 Mn4+ 4 g 0 0.16625(2) 0 0.469(6) 0.8812(2) 0
O1 O2- 4 i 0.2221(1) 0 0.22603(9) 0.511(6) 0.968(1) 0
O2 O2- 8 j 0.25232(7) 0.32355(4) 0.22284(5) 0.511 0.993 0
#End of TTdata_252823-ICSD