
#(C) 2019 by FIZ Karlsruhe - Leibniz Institute for Information Infrastructure.  All rights reserved.
data_253200-ICSD
_database_code_ICSD 253200
_audit_creation_date 2017-08-01
_chemical_name_systematic 'Titanium manganese (9.228/27.772)'
_chemical_formula_structural 'Ti6 (Ti0.538 Mn0.462)6 Mn25'
_chemical_formula_sum 'Mn27.772 Ti9.228'
_exptl_crystal_density_diffrn 6.66
_publ_section_title

;
The Ti-Mn system revisited: experimental investigation and thermodynamic
modelling
;
loop_
_citation_id
_citation_journal_full
_citation_year
_citation_journal_volume
_citation_page_first
_citation_page_last
_citation_journal_id_ASTM
primary 'Physical Chemistry Chemical Physics' 2016 18 23326 23339 PPCPFQ
loop_
_publ_author_name
'Khan, A.U.'
'Broz, P.'
'Premovic, M.'
'Pavlu, J.'
'Vrestal, J.'
'Yan, X.'
'Maccio, D.'
'Saccone, A.'
'Giester, G.'
'Rogl, P.'
_cell_length_a 7.9081(3)
_cell_length_b 25.8557(9)
_cell_length_c 4.7931(2)
_cell_angle_alpha 90.
_cell_angle_beta 90.
_cell_angle_gamma 90.
_cell_volume 980.04
_cell_formula_units_Z 2
_symmetry_space_group_name_H-M 'P b a m'
_symmetry_Int_Tables_number 55
_refine_ls_R_factor_all 0.0241
loop_
_symmetry_equiv_pos_site_id
_symmetry_equiv_pos_as_xyz
1 'x+1/2, -y+1/2, z'
2 '-x+1/2, y+1/2, z'
3 'x, y, -z'
4 '-x, -y, -z'
5 '-x+1/2, y+1/2, -z'
6 'x+1/2, -y+1/2, -z'
7 '-x, -y, z'
8 'x, y, z'
loop_
_atom_type_symbol
_atom_type_oxidation_number
Mn0+ 0
Ti0+ 0
Mn0+ 0
Ti0+ 0
Mn0+ 0
Ti0+ 0
Mn0+ 0
Ti0+ 0
Mn0+ 0
loop_
_atom_site_label
_atom_site_type_symbol
_atom_site_symmetry_multiplicity
_atom_site_Wyckoff_symbol
_atom_site_fract_x
_atom_site_fract_y
_atom_site_fract_z
_atom_site_B_iso_or_equiv
_atom_site_occupancy
_atom_site_attached_hydrogens
Mn1 Mn0+ 4 h 0.08780(6) 0.24987(2) 0.5 . 1. 0
Mn2 Mn0+ 8 i 0.33820(4) 0.27736(1) 0.24129(8) . 1. 0
Mn3 Mn0+ 4 h 0.33776(6) 0.19291(2) 0.5 . 1. 0
Ti1 Ti0+ 4 h 0.15214(7) 0.35590(2) 0.5 . 0.64 0
Mn4 Mn0+ 4 h 0.15214(7) 0.35590(2) 0.5 . 0.36 0
Ti2 Ti0+ 4 g 0.15244(6) 0.19615(2) 0 . 0.64 0
Mn5 Mn0+ 4 g 0.15244(6) 0.19615(2) 0 . 0.36 0
Ti3 Ti0+ 4 g 0.02385(7) 0.30412(2) 0 . 1. 0
Ti4 Ti0+ 4 h 0.15168(7) 0.03516(2) 0.5 . 1. 0
Ti5 Ti0+ 4 h 0.02466(7) 0.14262(2) 0.5 . 1. 0
Mn6 Mn0+ 4 g 0.33713(6) 0.35695(2) 0 . 1. 0
Mn7 Mn0+ 4 g 0.09203(6) 0.08999(2) 0 . 1. 0
Mn8 Mn0+ 8 i 0.33370(4) 0.43879(1) 0.26914(8) . 1. 0
Mn9 Mn0+ 8 i 0.33927(4) 0.11345(1) 0.25448(7) . 1. 0
Mn10 Mn0+ 2 a 0 0 0 . 1. 0
Mn11 Mn0+ 4 g 0.08549(6) 0.41229(2) 0 . 1. 0
Mn12 Mn0+ 4 h 0.03627(6) 0.45634(2) 0.5 . 1. 0
Ti6 Ti0+ 4 g 0.33938(6) 0.01551(20) 0 . 0.332(4) 0
Mn13 Mn0+ 4 g 0.33938(6) 0.01551(20) 0 . 0.668(4) 0
loop_
_atom_site_aniso_label
_atom_site_aniso_type_symbol
_atom_site_aniso_U_11
_atom_site_aniso_U_22
_atom_site_aniso_U_33
_atom_site_aniso_U_12
_atom_site_aniso_U_13
_atom_site_aniso_U_23
Mn1 Mn0+ 0.0055(2) 0.0059(2) 0.0060(2) -0.0002(1) 0. 0.
Mn2 Mn0+ 0.0055(1) 0.0057(1) 0.0054(2) 0.0001(1) 0.0000(1) 0.0004(1)
Mn3 Mn0+ 0.0060(2) 0.0056(2) 0.0063(2) 0.0000(1) 0. 0.
Ti1 Ti0+ 0.0089(2) 0.0082(2) 0.0086(3) -0.0001(2) 0. 0.
Mn4 Mn0+ 0.0089(2) 0.0082(2) 0.0086(3) -0.0001(2) 0. 0.
Ti2 Ti0+ 0.0056(2) 0.0057(2) 0.0058(3) -0.0000(2) 0. 0.
Mn5 Mn0+ 0.0056(2) 0.0057(2) 0.0058(3) -0.0000(2) 0. 0.
Ti3 Ti0+ 0.0061(2) 0.0061(2) 0.0060(3) -0.0003(2) 0. 0.
Ti4 Ti0+ 0.0074(2) 0.0067(2) 0.0060(3) -0.0010(2) 0. 0.
Ti5 Ti0+ 0.0064(2) 0.0060(2) 0.0061(3) -0.0003(2) 0. 0.
Mn6 Mn0+ 0.0060(2) 0.0055(2) 0.0063(2) 0.0002(1) 0. 0.
Mn7 Mn0+ 0.0058(2) 0.0058(2) 0.0064(2) -0.0003(2) 0. 0.
Mn8 Mn0+ 0.0062(1) 0.0062(1) 0.0057(2) -0.0003(1) 0. 0.
Mn9 Mn0+ 0.0060(1) 0.0064(1) 0.0060(2) -0.0001(1) 0. 0.
Mn10 Mn0+ 0.0064(3) 0.0074(3) 0.0069(3) -0.0005(2) 0. 0.
Mn11 Mn0+ 0.0058(2) 0.0068(2) 0.0066(2) -0.0001(2) 0. 0.
Mn12 Mn0+ 0.0086(2) 0.0107(2) 0.0087(3) 0.0009(2) 0. 0.
Ti6 Ti0+ 0.0075(2) 0.0082(2) 0.0084(2) -0.0001(2) 0. 0.
Mn13 Mn0+ 0.0075(2) 0.0082(2) 0.0084(2) -0.0001(2) 0. 0.
#End of TTdata_253200-ICSD