
#(C) 2019 by FIZ Karlsruhe - Leibniz Institute for Information Infrastructure.  All rights reserved.
data_258978-ICSD
_database_code_ICSD 258978
_audit_creation_date 2018-02-01
_chemical_name_systematic 'Dilithium titanate - beta phase'
_chemical_formula_structural 'Li2 Ti O3'
_chemical_formula_sum 'Li2 O3 Ti1'
_chemical_name_structure_type Li2SnO3
_exptl_crystal_density_diffrn 3.41
_publ_section_title

;
Vaporization property and crystal structure of lithium metatitanate with
excess Li
;
loop_
_citation_id
_citation_journal_full
_citation_year
_citation_journal_volume
_citation_page_first
_citation_page_last
_citation_journal_id_ASTM
primary 'Journal of Nuclear Materials' 2013 442 S447 S450 JNUMAM
loop_
_publ_author_name
'Mukai, Keisuke'
'Sasaki, Kazuya'
'Terai, Takayuki'
'Suzuki, Akihiro'
'Hoshino, Tsuyoshi'
_cell_length_a 5.0686(1)
_cell_length_b 8.7882(1)
_cell_length_c 9.7520(1)
_cell_angle_alpha 90
_cell_angle_beta 100.1027(4)
_cell_angle_gamma 90
_cell_volume 427.66
_cell_formula_units_Z 8
_symmetry_space_group_name_H-M 'C 1 2/c 1'
_symmetry_Int_Tables_number 15
_refine_ls_R_factor_all 0.0639
loop_
_symmetry_equiv_pos_site_id
_symmetry_equiv_pos_as_xyz
1 'x, -y, z+1/2'
2 '-x, -y, -z'
3 '-x, y, -z+1/2'
4 'x, y, z'
5 'x+1/2, -y+1/2, z+1/2'
6 '-x+1/2, -y+1/2, -z'
7 '-x+1/2, y+1/2, -z+1/2'
8 'x+1/2, y+1/2, z'
loop_
_atom_type_symbol
_atom_type_oxidation_number
Li1+ 1
Ti4+ 4
O2- -2
loop_
_atom_site_label
_atom_site_type_symbol
_atom_site_symmetry_multiplicity
_atom_site_Wyckoff_symbol
_atom_site_fract_x
_atom_site_fract_y
_atom_site_fract_z
_atom_site_B_iso_or_equiv
_atom_site_occupancy
_atom_site_attached_hydrogens
Li1 Li1+ 8 f 0.2387(5) 0.0816(3) 0.0006(3) 0.000(43) 1. 0
Li2 Li1+ 4 d 0.25 0.25 0.5 0.000(79) 1. 0
Li3 Li1+ 4 e 0 0.0866(6) 0.25 0.000(67) 1. 0
Ti1 Ti4+ 4 e 0 0.4171(3) 0.25 0.202(42) 1. 0
Ti2 Ti4+ 4 e 0 0.7505(3) 0.25 0.000(46) 1. 0
O1 O2- 8 f 0.1379(2) 0.2584(1) 0.1377(1) 0.927(23) 1. 0
O2 O2- 8 f 0.1140(2) 0.5850(1) 0.1360(1) 0.371(17) 1. 0
O3 O2- 8 f 0.1331(2) 0.9111(2) 0.1343(1) 0.166(20) 1. 0
#End of TTdata_258978-ICSD