
#(C) 2019 by FIZ Karlsruhe - Leibniz Institute for Information Infrastructure.  All rights reserved.
data_259313-ICSD
_database_code_ICSD 259313
_audit_creation_date 2018-08-01
_chemical_name_systematic 'Dilithium manganate(IV)'
_chemical_formula_structural 'Li2 Mn O3'
_chemical_formula_sum 'Li2 Mn1 O3'
_chemical_name_structure_type Li2MnO3
_exptl_crystal_density_diffrn 3.84
_publ_section_title

;
Effects of fluorine and chromium doping on the performance of lithium-rich
Li1+xMO2 (M = Ni, Mn, Co) positive electrodes
;
loop_
_citation_id
_citation_journal_full
_citation_year
_citation_journal_volume
_citation_page_first
_citation_page_last
_citation_journal_id_ASTM
primary 'Chemistry of Materials' 2017 29 10299 10311 CMATEX
loop_
_publ_author_name
'Pang, Wei Kong'
'Lin, Hsiu-Fen'
'Peterson, Vanessa K.'
'Lu, Cheng-Zhang'
'Liu, Chia-Erh'
'Liao, Shih-Chieh'
'Chen, Jin-Ming'
_cell_length_a 4.956(3)
_cell_length_b 8.575(4)
_cell_length_c 5.038(5)
_cell_angle_alpha 90.
_cell_angle_beta 109.43(6)
_cell_angle_gamma 90
_cell_volume 201.9
_cell_formula_units_Z 4
_symmetry_space_group_name_H-M 'C 1 2/m 1'
_symmetry_Int_Tables_number 12
_refine_ls_R_factor_all 0.0408
loop_
_symmetry_equiv_pos_site_id
_symmetry_equiv_pos_as_xyz
1 '-x, y, -z'
2 '-x, -y, -z'
3 'x, -y, z'
4 'x, y, z'
5 '-x+1/2, y+1/2, -z'
6 '-x+1/2, -y+1/2, -z'
7 'x+1/2, -y+1/2, z'
8 'x+1/2, y+1/2, z'
loop_
_atom_type_symbol
_atom_type_oxidation_number
Li1+ 1
Mn4+ 4
Li1+ 1
Mn4+ 4
O2- -2
loop_
_atom_site_label
_atom_site_type_symbol
_atom_site_symmetry_multiplicity
_atom_site_Wyckoff_symbol
_atom_site_fract_x
_atom_site_fract_y
_atom_site_fract_z
_atom_site_B_iso_or_equiv
_atom_site_occupancy
_atom_site_attached_hydrogens
Li1 Li1+ 2 b 0 0.5 0 0.001(1) 0.99 0
Mn1 Mn4+ 2 b 0 0.5 0 0.001(1) 0.01 0
Li2 Li1+ 2 c 0 0 0.5 0.001(1) 1. 0
Li3 Li1+ 4 h 0 0.681 0.5 0.001(1) 1. 0
Mn2 Mn4+ 4 g 0 0.168 0 0.001(1) 1. 0
O1 O2- 4 i 0.208(5) 0 0.255(5) 0.001(1) 1. 0
O2 O2- 8 j 0.280(3) 0.310(1) 0.236(3) 0.001(1) 1. 0
#End of TTdata_259313-ICSD