
#(C) 2019 by FIZ Karlsruhe - Leibniz Institute for Information Infrastructure.  All rights reserved.
data_261745-ICSD
_database_code_ICSD 261745
_audit_creation_date 2012-02-01
_chemical_name_systematic 'Lithium titanium oxide (0.75/1/2)'
_chemical_formula_structural 'Li0.75 Ti O2'
_chemical_formula_sum 'Li0.75 O2 Ti1'
_exptl_crystal_density_diffrn 4.12
_publ_section_title

;
Combining the pair distribution function and computational methods to
understand lithium insertion in brookite (Ti O2)
;
loop_
_citation_id
_citation_journal_full
_citation_year
_citation_journal_volume
_citation_page_first
_citation_page_last
_citation_journal_id_ASTM
primary 'Inorganic Chemistry' 2011 50 5855 5957 INOCAJ
loop_
_publ_author_name
'Dambournet, D.'
'Chapman, K.W.'
'Koudriachova, M.V.'
'Chupas, P.J.'
'Belharouak, I.'
'Amine, K.'
_cell_length_a 9.47(1)
_cell_length_b 5.69(1)
_cell_length_c 5.09(1)
_cell_angle_alpha 90.
_cell_angle_beta 90.
_cell_angle_gamma 90.
_cell_volume 274.27
_cell_formula_units_Z 8
_symmetry_space_group_name_H-M 'P b c a'
_symmetry_Int_Tables_number 61
_refine_ls_R_factor_all 0.233
loop_
_symmetry_equiv_pos_site_id
_symmetry_equiv_pos_as_xyz
1 'x+1/2, y, -z+1/2'
2 'x, -y+1/2, z+1/2'
3 '-x+1/2, y+1/2, z'
4 '-x, -y, -z'
5 '-x+1/2, -y, z+1/2'
6 '-x, y+1/2, -z+1/2'
7 'x+1/2, -y+1/2, -z'
8 'x, y, z'
loop_
_atom_type_symbol
_atom_type_oxidation_number
Ti4+ 4
O2- -2
Li0+ 0
loop_
_atom_site_label
_atom_site_type_symbol
_atom_site_symmetry_multiplicity
_atom_site_Wyckoff_symbol
_atom_site_fract_x
_atom_site_fract_y
_atom_site_fract_z
_atom_site_B_iso_or_equiv
_atom_site_occupancy
_atom_site_attached_hydrogens
Ti1 Ti4+ 8 c 0.1242(9) 0.1222(2) 0.893(3) . 1. 0
O1 O2- 8 c 0.980(2) 0.134(7) 0.252(4) . 1. 0
O2 O2- 8 c 0.237(2) 0.123(6) 0.563(5) . 1. 0
#End of TTdata_261745-ICSD