
#(C) 2019 by FIZ Karlsruhe - Leibniz Institute for Information Infrastructure.  All rights reserved.
data_26492-ICSD
_database_code_ICSD 26492
_audit_creation_date 1980-01-01
_audit_update_record 2012-02-01
_chemical_name_systematic 'Titanium dititanium(III) oxide - LT'
_chemical_formula_structural 'Ti3 O5'
_chemical_formula_sum 'O5 Ti3'
_chemical_name_structure_type Ti3O5
_exptl_crystal_density_diffrn 4.25
_publ_section_title 'Crystal structure studies on trititanium pentoxide, Ti3 O5'
loop_
_citation_id
_citation_journal_full
_citation_year
_citation_journal_volume
_citation_page_first
_citation_page_last
_citation_journal_id_ASTM
primary 'Acta Crystallographica' 1959 12 575 581 ACCRA9
loop_
_publ_author_name
'Asbrink, S.'
'Magneli, A.'
_cell_length_a 9.752(1)
_cell_length_b 3.8020(5)
_cell_length_c 9.442(1)
_cell_angle_alpha 90.
_cell_angle_beta 91.92(2)
_cell_angle_gamma 90.
_cell_volume 349.89
_cell_formula_units_Z 4
_symmetry_space_group_name_H-M 'C 1 2/m 1'
_symmetry_Int_Tables_number 12
_refine_ls_R_factor_all 0.088
loop_
_symmetry_equiv_pos_site_id
_symmetry_equiv_pos_as_xyz
1 '-x, y, -z'
2 '-x, -y, -z'
3 'x, -y, z'
4 'x, y, z'
5 '-x+1/2, y+1/2, -z'
6 '-x+1/2, -y+1/2, -z'
7 'x+1/2, -y+1/2, z'
8 'x+1/2, y+1/2, z'
loop_
_atom_type_symbol
_atom_type_oxidation_number
Ti3+ 3.333
O2- -2
loop_
_atom_site_label
_atom_site_type_symbol
_atom_site_symmetry_multiplicity
_atom_site_Wyckoff_symbol
_atom_site_fract_x
_atom_site_fract_y
_atom_site_fract_z
_atom_site_B_iso_or_equiv
_atom_site_occupancy
_atom_site_attached_hydrogens
Ti1 Ti3+ 4 i 0.1280(4) 0 0.0440(4) 1.03 1. 0
Ti2 Ti3+ 4 i 0.7786(4) 0 0.2669(4) 1.03 1. 0
Ti3 Ti3+ 4 i 0.0538(4) 0 0.3659(4) 1.03 1. 0
O1 O2- 4 i 0.676(3) 0 0.060(2) 1.28 1. 0
O2 O2- 4 i 0.241(3) 0 0.245(3) 1.28 1. 0
O3 O2- 4 i 0.588(2) 0 0.345(2) 1.28 1. 0
O4 O2- 4 i 0.953(2) 0 0.158(2) 1.66 1. 0
O5 O2- 4 i 0.866(2) 0 0.441(2) 1.93 1. 0
#End of TTdata_26492-ICSD