
#(C) 2019 by FIZ Karlsruhe - Leibniz Institute for Information Infrastructure.  All rights reserved.
data_28353-ICSD
_database_code_ICSD 28353
_audit_creation_date 1986-09-24
_audit_update_record 2018-08-01
_chemical_name_systematic 'Titanium(III) oxide'
_chemical_formula_structural 'Ti2 O3'
_chemical_formula_sum 'O3 Ti2'
_chemical_name_structure_type Corundum-Al2O3
_chemical_name_mineral Tistarite
_exptl_crystal_density_diffrn 4.57
_cell_measurement_temperature 4.2
_publ_section_title 'Magnetic and crystal structure of titanium sesquioxide'
loop_
_citation_id
_citation_journal_full
_citation_year
_citation_journal_volume
_citation_page_first
_citation_page_last
_citation_journal_id_ASTM
primary 'Physical Review' 1963 130 2230 2237 PHRVAO
loop_
_publ_author_name
'Abrahams, S.C.'
_cell_length_a 5.433(1)
_cell_length_b 5.433(1)
_cell_length_c 5.433(1)
_cell_angle_alpha 56.57(2)
_cell_angle_beta 56.57(2)
_cell_angle_gamma 56.57(2)
_cell_volume 104.41
_cell_formula_units_Z 2
_symmetry_space_group_name_H-M 'R -3 c R'
_symmetry_Int_Tables_number 167
_refine_ls_R_factor_all 0.117
loop_
_symmetry_equiv_pos_site_id
_symmetry_equiv_pos_as_xyz
1 '-x+1/2, -z+1/2, -y+1/2'
2 '-z+1/2, -y+1/2, -x+1/2'
3 '-y+1/2, -x+1/2, -z+1/2'
4 'x+1/2, z+1/2, y+1/2'
5 'z+1/2, y+1/2, x+1/2'
6 'y+1/2, x+1/2, z+1/2'
7 '-z, -x, -y'
8 '-y, -z, -x'
9 '-x, -y, -z'
10 'z, x, y'
11 'y, z, x'
12 'x, y, z'
loop_
_atom_type_symbol
_atom_type_oxidation_number
Ti3+ 3
O2- -2
loop_
_atom_site_label
_atom_site_type_symbol
_atom_site_symmetry_multiplicity
_atom_site_Wyckoff_symbol
_atom_site_fract_x
_atom_site_fract_y
_atom_site_fract_z
_atom_site_B_iso_or_equiv
_atom_site_occupancy
_atom_site_attached_hydrogens
Ti1 Ti3+ 4 c 0.3450(2) 0.3450(2) 0.3450(2) . 1. 0
O1 O2- 6 e 0.5625(3) 0.9375(3) 0.25 . 1. 0
loop_
_atom_site_aniso_label
_atom_site_aniso_type_symbol
_atom_site_aniso_beta_11
_atom_site_aniso_beta_22
_atom_site_aniso_beta_33
_atom_site_aniso_beta_12
_atom_site_aniso_beta_13
_atom_site_aniso_beta_23
Ti1 Ti3+ 0.0120(12) 0.0120(12) 0.0006(1) 0.0060(6) 0 0
O1 O2- 0.0054(8) 0.0061(9) 0.0010(1) 0.0031(5) -.0002(1) -.0004(1)
#End of TTdata_28353-ICSD