
#(C) 2019 by FIZ Karlsruhe - Leibniz Institute for Information Infrastructure.  All rights reserved.
data_28783-ICSD
_database_code_ICSD 28783
_audit_creation_date 1986-09-30
_audit_update_record 2006-04-01
_chemical_name_systematic 'Titanium(III) fluoride'
_chemical_formula_structural 'Ti F3'
_chemical_formula_sum 'F3 Ti1'
_exptl_crystal_density_diffrn 3.
_publ_section_title 'Ueber Titantrifluorid'
loop_
_citation_id
_citation_journal_full
_citation_year
_citation_journal_volume
_citation_page_first
_citation_page_last
_citation_journal_id_ASTM
primary 'Zeitschrift fuer Anorganische und Allgemeine Chemie (1950) (DE)' 1954
275 121 140 ZAACAB
loop_
_publ_author_name
'Ehrlich, P.'
'Pietzka, G.'
_cell_length_a 3.872
_cell_length_b 3.872
_cell_length_c 3.872
_cell_angle_alpha 89.
_cell_angle_beta 89.
_cell_angle_gamma 89.
_cell_volume 58.02
_cell_formula_units_Z 1
_symmetry_space_group_name_H-M 'R -3 m R'
_symmetry_Int_Tables_number 166
loop_
_symmetry_equiv_pos_site_id
_symmetry_equiv_pos_as_xyz
1 '-z, -y, -x'
2 '-z, -x, -y'
3 '-x, -z, -y'
4 '-y, -z, -x'
5 '-y, -x, -z'
6 '-x, -y, -z'
7 'z, y, x'
8 'z, x, y'
9 'x, z, y'
10 'y, z, x'
11 'y, x, z'
12 'x, y, z'
loop_
_atom_type_symbol
_atom_type_oxidation_number
Ti3+ 3
F1- -1
loop_
_atom_site_label
_atom_site_type_symbol
_atom_site_symmetry_multiplicity
_atom_site_Wyckoff_symbol
_atom_site_fract_x
_atom_site_fract_y
_atom_site_fract_z
_atom_site_B_iso_or_equiv
_atom_site_occupancy
_atom_site_attached_hydrogens
Ti1 Ti3+ 1 a 0 0 0 . 1. 0
F1 F1- 3 d 0.5 0 0 . 1. 0
#End of TTdata_28783-ICSD