
#(C) 2019 by FIZ Karlsruhe - Leibniz Institute for Information Infrastructure.  All rights reserved.
data_30005-ICSD
_database_code_ICSD 30005
_audit_creation_date 1980-01-01
_audit_update_record 2011-08-01
_chemical_name_systematic 'Manganese dimanganese(III) oxide'
_chemical_formula_structural 'Mn3 O4'
_chemical_formula_sum 'Mn3 O4'
_chemical_name_structure_type CaMn2O4
_exptl_crystal_density_diffrn 5.37
_publ_section_title

;
Pressure diagram of manganese(II,III) oxide and crystal structure of the high
pressure phase of delta-manganese(II,III) oxide
;
loop_
_citation_id
_citation_journal_full
_citation_year
_citation_journal_volume
_citation_page_first
_citation_page_last
_citation_journal_id_ASTM
primary Geokhimiya 1979 1979 254 260 GEOKAQ
loop_
_publ_author_name
'Kuznetsov, L.M.'
'Tsvigunov, A.N.'
'Brudina, K.P.'
_cell_length_a 3.026(1)
_cell_length_b 9.769(2)
_cell_length_c 9.568(1)
_cell_angle_alpha 90.
_cell_angle_beta 90.
_cell_angle_gamma 90.
_cell_volume 282.84
_cell_formula_units_Z 4
_symmetry_space_group_name_H-M 'P b c m'
_symmetry_Int_Tables_number 57
_refine_ls_R_factor_all 0.04
loop_
_symmetry_equiv_pos_site_id
_symmetry_equiv_pos_as_xyz
1 'x, -y+1/2, z+1/2'
2 '-x, y+1/2, z'
3 'x, y, -z+1/2'
4 '-x, -y, -z'
5 '-x, y+1/2, -z+1/2'
6 'x, -y+1/2, -z'
7 '-x, -y, z+1/2'
8 'x, y, z'
loop_
_atom_type_symbol
_atom_type_oxidation_number
Mn2+ 2
Mn3+ 3
O2- -2
loop_
_atom_site_label
_atom_site_type_symbol
_atom_site_symmetry_multiplicity
_atom_site_Wyckoff_symbol
_atom_site_fract_x
_atom_site_fract_y
_atom_site_fract_z
_atom_site_B_iso_or_equiv
_atom_site_occupancy
_atom_site_attached_hydrogens
Mn1 Mn2+ 4 d 0.6832(13) 0.3547(4) 0.25 . 1. 0
Mn2 Mn3+ 8 e 0.2055(9) 0.1141(2) 0.0694(2) . 1. 0
O1 O2- 4 c 0.612(5) 0.25 0 . 1. 0
O2 O2- 4 d 0.185(6) 0.197(1) 0.25 . 1. 0
O3 O2- 8 e 0.205(4) 0.472(1) 0.111(1) . 1. 0
loop_
_atom_site_aniso_label
_atom_site_aniso_type_symbol
_atom_site_aniso_beta_11
_atom_site_aniso_beta_22
_atom_site_aniso_beta_33
_atom_site_aniso_beta_12
_atom_site_aniso_beta_13
_atom_site_aniso_beta_23
Mn1 Mn2+ 0.025(4) 0.0036 0.0027(4) 0.0025(24) 0 0
Mn2 Mn3+ 0.029(3) 0.0032(3) 0.0018(3) -.0028(2) -.0002(4) 0.0009(17)
O1 O2- 0.038(20) 0.0040(17) 0.0068(26) 0 0.0003(14) 0
O2 O2- 0.052(23) 0.0027(15) 0.007(10) -.0003(1) 0 0
O3 O2- 0.047(14) 0.0038(10) 0.0038(73) -.0003(8) 0.0012(14) 0.0016(7)
#End of TTdata_30005-ICSD