
#(C) 2019 by FIZ Karlsruhe - Leibniz Institute for Information Infrastructure.  All rights reserved.
data_31400-ICSD
_database_code_ICSD 31400
_audit_creation_date 1980-01-01
_audit_update_record 1985-05-31
_chemical_name_systematic 'Titanium oxide (10/18)'
_chemical_formula_structural 'Ti10 O18'
_chemical_formula_sum 'O18 Ti10'
_chemical_name_structure_type Ti5O9
_exptl_crystal_density_diffrn 4.32
_cell_measurement_temperature 135.
_publ_section_title

;
Phase transitions in Ti5 O9 single crystals: Electrical conductivity, magnetic
susceptibility, specific heat, electron paramagnetic resonance, and structural
aspects
;
loop_
_citation_id
_citation_journal_full
_citation_year
_citation_journal_volume
_citation_page_first
_citation_page_last
_citation_journal_id_ASTM
primary 'Physical Review  B: Solid State' 1977 16 2811 2821 PLRBAQ
loop_
_publ_author_name
'Marezio, M.'
'Duc Tran Qui'
'Lakkis, S.'
'Schlenker, C.'
_cell_length_a 5.564
_cell_length_b 7.12
_cell_length_c 8.863
_cell_angle_alpha 97.62
_cell_angle_beta 112.32
_cell_angle_gamma 108.59
_cell_volume 294.69
_cell_formula_units_Z 1
_symmetry_space_group_name_H-M 'P -1'
_symmetry_Int_Tables_number 2
_refine_ls_R_factor_all 0.027
loop_
_symmetry_equiv_pos_site_id
_symmetry_equiv_pos_as_xyz
1 '-x, -y, -z'
2 'x, y, z'
loop_
_atom_type_symbol
_atom_type_oxidation_number
Ti3+ 3.6
O2- -2
loop_
_atom_site_label
_atom_site_type_symbol
_atom_site_symmetry_multiplicity
_atom_site_Wyckoff_symbol
_atom_site_fract_x
_atom_site_fract_y
_atom_site_fract_z
_atom_site_B_iso_or_equiv
_atom_site_occupancy
_atom_site_attached_hydrogens
Ti1 Ti3+ 1 c 0 0.5 0 . 1. 0
Ti2 Ti3+ 1 a 0 0 0 . 1. 0
Ti3 Ti3+ 2 i 0.55449(7) 0.84526(6) 0.20750(4) . 1. 0
Ti4 Ti3+ 2 i 0.54956(7) 0.34347(3) 0.20442(4) . 1. 0
Ti5 Ti3+ 2 i 0.13884(7) 0.17413(5) 0.42183(4) . 1. 0
Ti6 Ti3+ 2 i 0.14689(7) 0.67483(5) 0.42325(4) . 1. 0
O1 O2- 2 i 0.6445(3) 0.8519(2) 0.0207(2) . 1. 0
O2 O2- 2 i 0.1621(2) 0.8016(2) 0.0801(1) . 1. 0
O3 O2- 2 i 0.3948(2) 0.5379(2) 0.1346(1) . 1. 0
O4 O2- 2 i 0.9212(2) 0.4884(2) 0.2026(1) . 1. 0
O5 O2- 2 i 0.2166(3) 0.1923(2) 0.2381(1) . 1. 0
O6 O2- 2 i 0.7289(2) 0.1535(2) 0.3237(1) . 1. 0
O7 O2- 2 i 0.9529(2) 0.8667(2) 0.3676(1) . 1. 0
O8 O2- 2 i 0.4905(2) 0.8051(2) 0.4190(1) . 1. 0
O9 O2- 2 i 0.7678(2) 0.5287(2) 0.4571(1) . 1. 0
loop_
_atom_site_aniso_label
_atom_site_aniso_type_symbol
_atom_site_aniso_beta_11
_atom_site_aniso_beta_22
_atom_site_aniso_beta_33
_atom_site_aniso_beta_12
_atom_site_aniso_beta_13
_atom_site_aniso_beta_23
Ti1 Ti3+ 0.00650(13) 0.00309(8) 0.00217(5) 0.00286(8) 0.00190(6) 0.00144(5)
Ti2 Ti3+ 0.00422(11) 0.00212(7) 0.00117(4) 0.00157(7) 0.00091(5) 0.00072(4)
Ti3 Ti3+ 0.00484(8) 0.00202(5) 0.00124(3) 0.00159(5) 0.00116(4) 0.00068(3)
Ti4 Ti3+ 0.00378(6) 0.00196(5) 0.00108(3) 0.00124(5) 0.00062(4) 0.00048(3)
Ti5 Ti3+ 0.00525(8) 0.00201(5) 0.00154(3) 0.00172(5) 0.00132(4) 0.00089(3)
Ti6 Ti3+ 0.00418(8) 0.00183(6) 0.00123(3) 0.00105(5) 0.00042(4) 0.00051(3)
O1 O2- 0.0057(3) 0.0027(2) 0.0018(1) 0.0016(2) 0.0015(1) 0.0010(1)
O2 O2- 0.0051(3) 0.0019(1) 0.0017(1) 0.0014(2) 0.0010(1) 0.0007(1)
O3 O2- 0.0046(3) 0.0022(1) 0.0016(1) 0.0017(2) 0.0010(1) 0.0008(1)
O4 O2- 0.0047(3) 0.0023(2) 0.0013(1) 0.0010(2) 0.0010(1) 0.0005(1)
O5 O2- 0.0058(3) 0.0031(2) 0.0012(1) 0.0015(2) 0.0010(1) 0.0007(1)
O6 O2- 0.0047(3) 0.0025(2) 0.0015(1) 0.0015(2) 0.0010(2) 0.0009(1)
O7 O2- 0.0044(3) 0.0023(2) 0.0013(1) 0.0013(2) 0.0010(1) 0.0007(1)
O8 O2- 0.0039(3) 0.0024(2) 0.0013(1) 0.0011(2) 0.0008(1) 0.0008(1)
O9 O2- 0.0049(3) 0.0022(1) 0.0013(1) 0.0016(2) 0.0008(1) 0.0007(1)
#End of TTdata_31400-ICSD