
#(C) 2019 by FIZ Karlsruhe - Leibniz Institute for Information Infrastructure.  All rights reserved.
data_33640-ICSD
_database_code_ICSD 33640
_audit_creation_date 1984-11-05
_audit_update_record 2015-08-01
_chemical_name_systematic 'Titanium(III) oxide'
_chemical_formula_structural 'Ti2 O3'
_chemical_formula_sum 'O3 Ti2'
_chemical_name_structure_type Corundum-Al2O3
_chemical_name_mineral Tistarite
_exptl_crystal_density_diffrn 4.58
_publ_section_title

;
Untersuchungen ueber die Kristallstruktur von Sesquioxyden und Verbindungen A
B O3
;
loop_
_citation_id
_citation_journal_full
_citation_year
_citation_journal_volume
_citation_page_first
_citation_page_last
_citation_journal_id_ASTM
primary

;
Papers - Norwegian Academy of Sciences and Letters, [Section] 1:
Mathematics-Natural Sciences Section
; 1928 1928 1 165 SUNVAQ
loop_
_publ_author_name
'Goldschmidt, V.M.'
'Barth, T.'
'Lunde, G.V.V.'
_cell_length_a 5.42(1)
_cell_length_b 5.42(1)
_cell_length_c 5.42(1)
_cell_angle_alpha 56.83(1)
_cell_angle_beta 56.83(1)
_cell_angle_gamma 56.83(1)
_cell_volume 104.35
_cell_formula_units_Z 2
_symmetry_space_group_name_H-M 'R -3 c R'
_symmetry_Int_Tables_number 167
loop_
_symmetry_equiv_pos_site_id
_symmetry_equiv_pos_as_xyz
1 '-x+1/2, -z+1/2, -y+1/2'
2 '-z+1/2, -y+1/2, -x+1/2'
3 '-y+1/2, -x+1/2, -z+1/2'
4 'x+1/2, z+1/2, y+1/2'
5 'z+1/2, y+1/2, x+1/2'
6 'y+1/2, x+1/2, z+1/2'
7 '-z, -x, -y'
8 '-y, -z, -x'
9 '-x, -y, -z'
10 'z, x, y'
11 'y, z, x'
12 'x, y, z'
loop_
_atom_type_symbol
_atom_type_oxidation_number
Ti3+ 3
O2- -2
loop_
_atom_site_label
_atom_site_type_symbol
_atom_site_symmetry_multiplicity
_atom_site_Wyckoff_symbol
_atom_site_fract_x
_atom_site_fract_y
_atom_site_fract_z
_atom_site_B_iso_or_equiv
_atom_site_occupancy
_atom_site_attached_hydrogens
Ti1 Ti3+ 4 c 0.35(1) 0.35(1) 0.35(1) . 1. 0
O1 O2- 6 e 0.55 -.05 0.25 . 1. 0
#End of TTdata_33640-ICSD