
#(C) 2019 by FIZ Karlsruhe - Leibniz Institute for Information Infrastructure.  All rights reserved.
data_35121-ICSD
_database_code_ICSD 35121
_audit_creation_date 1982-12-31
_audit_update_record 2004-04-01
_chemical_name_systematic 'Titanium oxide (6/11)'
_chemical_formula_structural 'Ti6 O11'
_chemical_formula_sum 'O11 Ti6'
_exptl_crystal_density_diffrn 4.3
_publ_section_title
'Structural chemistry of the Magneli phases Tin O(2n-1), 4<=n<=9'
loop_
_citation_id
_citation_journal_full
_citation_year
_citation_journal_volume
_citation_page_first
_citation_page_last
_citation_journal_id_ASTM
primary 'Journal of Solid State Chemistry' 1982 44 273 281 JSSCBI
loop_
_publ_author_name
'le Page, Y.'
'Strobel, P.'
_cell_length_a 5.552(1)
_cell_length_b 7.126(1)
_cell_length_c 32.233(6)
_cell_angle_alpha 66.94(1)
_cell_angle_beta 57.08(1)
_cell_angle_gamma 108.51(2)
_cell_volume 716.04
_cell_formula_units_Z 4
_symmetry_space_group_name_H-M 'I -1'
_symmetry_Int_Tables_number 2
_refine_ls_R_factor_all 0.039
loop_
_symmetry_equiv_pos_site_id
_symmetry_equiv_pos_as_xyz
1 '-x, -y, -z'
2 'x, y, z'
3 '-x+1/2, -y+1/2, -z+1/2'
4 'x+1/2, y+1/2, z+1/2'
loop_
_atom_type_symbol
_atom_type_oxidation_number
Ti0+ 0
O0+ 0
loop_
_atom_site_label
_atom_site_type_symbol
_atom_site_symmetry_multiplicity
_atom_site_Wyckoff_symbol
_atom_site_fract_x
_atom_site_fract_y
_atom_site_fract_z
_atom_site_B_iso_or_equiv
_atom_site_occupancy
_atom_site_attached_hydrogens
Ti1 Ti0+ 4 i 0.01694(18) 0.01249(13) 0.04189(3) 0.43(2) 1. 0
Ti2 Ti0+ 4 i 0.04804(17) 0.04599(12) 0.12796(3) 0.42(2) 1. 0
Ti3 Ti0+ 4 i 0.08925(17) 0.03991(12) 0.21912(3) 0.39(2) 1. 0
Ti4 Ti0+ 4 i 0.01538(19) 0.51222(13) 0.04304(3) 0.51(2) 1. 0
Ti5 Ti0+ 4 i 0.04278(17) 0.53903(12) 0.12984(3) 0.41(2) 1. 0
Ti6 Ti0+ 4 i 0.09235(17) 0.54489(12) 0.21673(3) 0.38(2) 1. 0
O1 O0+ 4 i -.0195(7) 0.6931(5) 0.07571(12) 0.51(2) 1. 0
O2 O0+ 4 i -.0770(7) 0.6704(5) 0.17792(11) 0.45(2) 1. 0
O3 O0+ 4 i 0.0336(7) 0.3219(5) 0.01279(12) 0.49(2) 1. 0
O4 O0+ 4 i 0.0583(7) 0.3383(5) 0.10073(12) 0.51(2) 1. 0
O5 O0+ 4 i 0.0325(7) 0.3150(5) 0.19623(11) 0.44(2) 1. 0
O6 O0+ 4 i 0.6036(7) 0.8195(5) 0.05449(12) 0.57(2) 1. 0
O7 O0+ 4 i 0.6344(7) 0.8401(5) 0.14142(12) 0.55(2) 1. 0
O8 O0+ 4 i 0.6231(7) 0.8426(5) 0.23277(11) 0.43(2) 1. 0
O9 O0+ 4 i 0.4055(7) 0.1862(5) 0.03826(11) 0.52(2) 1. 0
O10 O0+ 4 i 0.4127(7) 0.1885(5) 0.12846(11) 0.47(2) 1. 0
O11 O0+ 4 i 0.4436(7) 0.1793(5) 0.21666(11) 0.45(2) 1. 0
#End of TTdata_35121-ICSD