
#(C) 2019 by FIZ Karlsruhe - Leibniz Institute for Information Infrastructure.  All rights reserved.
data_35122-ICSD
_database_code_ICSD 35122
_audit_creation_date 1982-12-31
_chemical_name_systematic 'Titanium oxide (7/13)'
_chemical_formula_structural 'Ti7 O13'
_chemical_formula_sum 'O13 Ti7'
_exptl_crystal_density_diffrn 4.29
_publ_section_title
'Structural chemistry of the Magneli phases Tin O(2n-1), 4<=n<=9'
loop_
_citation_id
_citation_journal_full
_citation_year
_citation_journal_volume
_citation_page_first
_citation_page_last
_citation_journal_id_ASTM
primary 'Journal of Solid State Chemistry' 1982 44 273 281 JSSCBI
loop_
_publ_author_name
'le Page, Y.'
'Strobel, P.'
_cell_length_a 5.537(1)
_cell_length_b 7.132(1)
_cell_length_c 38.151(8)
_cell_angle_alpha 66.70(1)
_cell_angle_beta 57.12(1)
_cell_angle_gamma 108.50(2)
_cell_volume 841.35
_cell_formula_units_Z 4
_symmetry_space_group_name_H-M 'I -1'
_symmetry_Int_Tables_number 2
_refine_ls_R_factor_all 0.036
loop_
_symmetry_equiv_pos_site_id
_symmetry_equiv_pos_as_xyz
1 '-x, -y, -z'
2 'x, y, z'
3 '-x+1/2, -y+1/2, -z+1/2'
4 'x+1/2, y+1/2, z+1/2'
loop_
_atom_type_symbol
_atom_type_oxidation_number
Ti0+ 0
O0+ 0
loop_
_atom_site_label
_atom_site_type_symbol
_atom_site_symmetry_multiplicity
_atom_site_Wyckoff_symbol
_atom_site_fract_x
_atom_site_fract_y
_atom_site_fract_z
_atom_site_B_iso_or_equiv
_atom_site_occupancy
_atom_site_attached_hydrogens
Ti1 Ti0+ 2 a 0 0 0 0.49(2) 1. 0
Ti2 Ti0+ 4 i 0.02289(24) 0.01798(17) 0.07288(3) 0.45(2) 1. 0
Ti3 Ti0+ 4 i 0.05373(23) 0.05037(16) 0.14620(3) 0.45(2) 1. 0
Ti4 Ti0+ 4 i 0.09013(23) 0.04081(16) 0.22389(3) 0.41(2) 1. 0
Ti5 Ti0+ 2 f 0 0.5 0 0.51(2) 1. 0
Ti6 Ti0+ 4 i 0.02534(24) 0.51812(17) 0.07388(4) 0.54(2) 1. 0
Ti7 Ti0+ 4 i 0.04851(23) 0.54356(16) 0.14797(3) 0.42(2) 1. 0
Ti8 Ti0+ 4 i 0.09374(23) 0.54566(16) 0.22168(3) 0.40(2) 1. 0
O1 O0+ 4 i -.0163(9) 0.6883(6) 0.02573(13) 0.5(2) 1. 0
O2 O0+ 4 i -.0101(9) 0.6993(6) 0.10149(14) 0.5(2) 1. 0
O3 O0+ 4 i -.0736(9) 0.6742(6) 0.18849(13) 0.47(2) 1. 0
O4 O0+ 4 i 0.0306(9) 0.3227(6) 0.04987(13) 0.5(2) 1. 0
O5 O0+ 4 i 0.0594(9) 0.3402(6) 0.12404(13) 0.5(2) 1. 0
O6 O0+ 4 i 0.0336(9) 0.3155(6) 0.20471(13) 0.42(2) 1. 0
O7 O0+ 4 i 0.6002(9) 0.8098(6) 0.00662(13) 0.52(2) 1. 0
O8 O0+ 4 i 0.6147(9) 0.8255(6) 0.08371(14) 0.53(2) 1. 0
O9 O0+ 4 i 0.6411(9) 0.8441(6) 0.15710(13) 0.51(2) 1. 0
O10 O0+ 4 i 0.6219(9) 0.8418(6) 0.23535(13) 0.43(2) 1. 0
O11 O0+ 4 i 0.4061(9) 0.1927(6) 0.07037(13) 0.51(2) 1. 0
O12 O0+ 4 i 0.4158(9) 0.1926(6) 0.14683(13) 0.47(2) 1. 0
O13 O0+ 4 i 0.4448(9) 0.1816(6) 0.22180(13) 0.5(2) 1. 0
#End of TTdata_35122-ICSD