
#(C) 2019 by FIZ Karlsruhe - Leibniz Institute for Information Infrastructure.  All rights reserved.
data_35148-ICSD
_database_code_ICSD 35148
_audit_creation_date 1982-12-31
_audit_update_record 2006-04-01
_chemical_name_systematic 'Dititanium(III) titanium oxide - gamma'
_chemical_formula_structural 'Ti3 O5'
_chemical_formula_sum 'O5 Ti3'
_chemical_name_structure_type V3O5(HT)
_exptl_crystal_density_diffrn 4.35
_cell_measurement_temperature 297.
_publ_section_title 'The structure of gamma-Ti3 O5 at 297 K'
loop_
_citation_id
_citation_journal_full
_citation_year
_citation_journal_volume
_citation_page_first
_citation_page_last
_citation_journal_id_ASTM
primary

;
Acta Crystallographica, Section B: Structural Crystallography and Crystal
Chemistry
; 1982 38 2570 2576 ACBCAR
loop_
_publ_author_name
'Hong, S.H.'
'Asbrink, S.'
_cell_length_a 9.9701(5)
_cell_length_b 5.0747(3)
_cell_length_c 7.1810(4)
_cell_angle_alpha 90.
_cell_angle_beta 109.865(4)
_cell_angle_gamma 90.
_cell_volume 341.71
_cell_formula_units_Z 4
_symmetry_space_group_name_H-M 'I 1 2/c 1'
_symmetry_Int_Tables_number 15
_refine_ls_R_factor_all 0.0185
loop_
_symmetry_equiv_pos_site_id
_symmetry_equiv_pos_as_xyz
1 '-x, y, -z+1/2'
2 '-x, -y, -z'
3 'x, -y, z+1/2'
4 'x, y, z'
5 '-x+1/2, y+1/2, -z'
6 '-x+1/2, -y+1/2, -z+1/2'
7 'x+1/2, -y+1/2, z'
8 'x+1/2, y+1/2, z+1/2'
loop_
_atom_type_symbol
_atom_type_oxidation_number
Ti3+ 3.333
O2- -2
loop_
_atom_site_label
_atom_site_type_symbol
_atom_site_symmetry_multiplicity
_atom_site_Wyckoff_symbol
_atom_site_fract_x
_atom_site_fract_y
_atom_site_fract_z
_atom_site_B_iso_or_equiv
_atom_site_occupancy
_atom_site_attached_hydrogens
Ti1 Ti3+ 8 f 0.37099(1) 0.488050(17) 0.089800(14) . 1. 0
Ti2 Ti3+ 4 b 0 0.5 0 . 1. 0
O1 O2- 8 f 0.68944(5) 0.83681(8) 0.53592(7) . 1. 0
O2 O2- 8 f 0.58096(5) 0.34457(7) 0.63893(7) . 1. 0
O3 O2- 4 e 0 0.30804(11) 0.25 . 1. 0
loop_
_atom_site_aniso_label
_atom_site_aniso_type_symbol
_atom_site_aniso_beta_11
_atom_site_aniso_beta_22
_atom_site_aniso_beta_33
_atom_site_aniso_beta_12
_atom_site_aniso_beta_13
_atom_site_aniso_beta_23
Ti1 Ti3+ 0.00102(1) 0.00399(3) 0.00182(2) -.00003(1) 0.00045(1) -.00011(1)
Ti2 Ti3+ 0.00126(1) 0.00279(4) 0.00193(2) 0.00024(1) 0.00055(1) -.00010(2)
O1 O2- 0.00108(3) 0.00421(10) 0.00363(7) -.00019(4) 0.00069(4) -.00062(6)
O2 O2- 0.00141(3) 0.00353(8) 0.00234(6) -.00022(4) 0.00067(3) -.00038(5)
O3 O2- 0.00168(4) 0.00339(11) 0.00224(8) 0 0.00076(5) 0
#End of TTdata_35148-ICSD