
#(C) 2019 by FIZ Karlsruhe - Leibniz Institute for Information Infrastructure.  All rights reserved.
data_36411-ICSD
_database_code_ICSD 36411
_audit_creation_date 1980-01-01
_audit_update_record 2006-04-01
_chemical_name_systematic 'Titanium oxide'
_chemical_formula_structural 'Ti O2'
_chemical_formula_sum 'O2 Ti1'
_chemical_name_structure_type Brookite-TiO2
_chemical_name_mineral Brookite
_exptl_crystal_density_diffrn 4.07
_cell_measurement_temperature 898.
_publ_section_title

;
Polyhedral thermal expansion in the Ti O2 polymorphs. Refinement of the
crystal structures of rutile and brookite at high temperature
;
loop_
_citation_id
_citation_journal_full
_citation_year
_citation_journal_volume
_citation_page_first
_citation_page_last
_citation_journal_id_ASTM
primary 'Canadian Mineralogist' 1979 17 77 85 CAMIA6
loop_
_publ_author_name
'Meagher, E.P.'
'Lager, G.A.'
_cell_length_a 9.211(4)
_cell_length_b 5.472(4)
_cell_length_c 5.171(4)
_cell_angle_alpha 90.
_cell_angle_beta 90.
_cell_angle_gamma 90.
_cell_volume 260.63
_cell_formula_units_Z 8
_symmetry_space_group_name_H-M 'P b c a'
_symmetry_Int_Tables_number 61
_refine_ls_R_factor_all 0.05
loop_
_symmetry_equiv_pos_site_id
_symmetry_equiv_pos_as_xyz
1 'x+1/2, y, -z+1/2'
2 'x, -y+1/2, z+1/2'
3 '-x+1/2, y+1/2, z'
4 '-x, -y, -z'
5 '-x+1/2, -y, z+1/2'
6 '-x, y+1/2, -z+1/2'
7 'x+1/2, -y+1/2, -z'
8 'x, y, z'
loop_
_atom_type_symbol
_atom_type_oxidation_number
Ti4+ 4
O2- -2
loop_
_atom_site_label
_atom_site_type_symbol
_atom_site_symmetry_multiplicity
_atom_site_Wyckoff_symbol
_atom_site_fract_x
_atom_site_fract_y
_atom_site_fract_z
_atom_site_B_iso_or_equiv
_atom_site_occupancy
_atom_site_attached_hydrogens
Ti1 Ti4+ 8 c 0.1290(2) 0.0999(2) 0.8628(2) . 1. 0
O1 O2- 8 c 0.0098(6) 0.1484(7) 0.1831(7) . 1. 0
O2 O2- 8 c 0.2322(6) 0.1117(8) 0.5366(7) . 1. 0
loop_
_atom_site_aniso_label
_atom_site_aniso_type_symbol
_atom_site_aniso_beta_11
_atom_site_aniso_beta_22
_atom_site_aniso_beta_33
_atom_site_aniso_beta_12
_atom_site_aniso_beta_13
_atom_site_aniso_beta_23
Ti1 Ti4+ 0.00398(28) 0.01097(40) 0.00931(43) 0.00008(19) 0.00004 0.00009
O1 O2- 0.00340(73) 0.0143(13) 0.0104(13) -.00253(73) 0.00035 -.00153
O2 O2- 0.00392(79) 0.0156(15) 0.00104(13) 0.00232(85) 0.00083 0.00104
#End of TTdata_36411-ICSD