
#(C) 2019 by FIZ Karlsruhe - Leibniz Institute for Information Infrastructure.  All rights reserved.
data_40110-ICSD
_database_code_ICSD 40110
_audit_creation_date 1998-06-26
_audit_update_record 2016-02-01
_chemical_name_systematic 'Manganese oxide (3/4) - beta'
_chemical_formula_structural 'Mn3 O4'
_chemical_formula_sum 'Mn3 O4'
_chemical_name_structure_type CaMn2O4
_chemical_name_mineral Hausmannite
_exptl_crystal_density_diffrn 5.37
_publ_section_title
'Rietveld refinement of the high-pressure polymorph of Mn3 O4'
loop_
_citation_id
_citation_journal_full
_citation_year
_citation_journal_volume
_citation_page_first
_citation_page_last
_citation_journal_id_ASTM
primary 'American Mineralogist' 1990 75 1249 1252 AMMIAY
loop_
_publ_author_name
'Ross, C.R.'
'Rubie, D.C.'
'Paris, E.'
_cell_length_a 9.5564(3)
_cell_length_b 9.7996(3)
_cell_length_c 3.0240(1)
_cell_angle_alpha 90.
_cell_angle_beta 90.
_cell_angle_gamma 90.
_cell_volume 283.19
_cell_formula_units_Z 4
_symmetry_space_group_name_H-M 'P m a b'
_symmetry_Int_Tables_number 57
_refine_ls_R_factor_all 0.044
loop_
_symmetry_equiv_pos_site_id
_symmetry_equiv_pos_as_xyz
1 'x+1/2, -y+1/2, z'
2 'x, y+1/2, -z'
3 '-x+1/2, y, z'
4 '-x, -y, -z'
5 '-x+1/2, y+1/2, -z'
6 '-x, -y+1/2, z'
7 'x+1/2, -y, -z'
8 'x, y, z'
loop_
_atom_type_symbol
_atom_type_oxidation_number
Mn2+ 2
Mn3+ 3
O2- -2
loop_
_atom_site_label
_atom_site_type_symbol
_atom_site_symmetry_multiplicity
_atom_site_Wyckoff_symbol
_atom_site_fract_x
_atom_site_fract_y
_atom_site_fract_z
_atom_site_B_iso_or_equiv
_atom_site_occupancy
_atom_site_attached_hydrogens
Mn1 Mn2+ 4 d 0.75 0.1461(1) 0.6845(7) 0.55(4) 1. 0
Mn2 Mn3+ 8 e 0.0696(1) 0.1147(11) 0.2034(5) 0.25(3) 1. 0
O1 O2- 4 c 0 0.25 0.6204(18) 0.18(7) 1. 0
O2 O2- 4 d 0.25 0.1999(6) 0.1899(20) 0.18(7) 1. 0
O3 O2- 8 e 0.1112(4) 0.9694(5) 0.7956(15) 0.18(7) 1. 0
#End of TTdata_40110-ICSD