
#(C) 2019 by FIZ Karlsruhe - Leibniz Institute for Information Infrastructure.  All rights reserved.
data_43000-ICSD
_database_code_ICSD 43000
_audit_creation_date 2000-07-15
_audit_update_record 2006-04-01
_chemical_name_systematic 'Manganese(III) oxide hydroxide'
_chemical_formula_structural 'Mn O (O H)'
_chemical_formula_sum 'H1 Mn1 O2'
_chemical_name_structure_type AlOOH(Diaspore)
_chemical_name_mineral Groutite
_exptl_crystal_density_diffrn 4.17
_publ_section_title
'Refinement of the crystal structure of groutite, alpha-Mn O O H'
loop_
_citation_id
_citation_journal_full
_citation_year
_citation_journal_volume
_citation_page_first
_citation_page_last
_citation_journal_id_ASTM
primary

;
Acta Crystallographica, Section B: Structural Crystallography and Crystal
Chemistry
; 1968 24 1233 1236 ACBCAR
loop_
_publ_author_name
'Dent Glasser, L.S.'
'Ingram, L.'
_cell_length_a 4.560(2)
_cell_length_b 10.700(5)
_cell_length_c 2.870(1)
_cell_angle_alpha 90.
_cell_angle_beta 90.
_cell_angle_gamma 90.
_cell_volume 140.03
_cell_formula_units_Z 4
_symmetry_space_group_name_H-M 'P b n m'
_symmetry_Int_Tables_number 62
_refine_ls_R_factor_all 0.027
loop_
_symmetry_equiv_pos_site_id
_symmetry_equiv_pos_as_xyz
1 '-x+1/2, y+1/2, z'
2 'x, y, -z+1/2'
3 'x+1/2, -y+1/2, z+1/2'
4 '-x, -y, -z'
5 'x+1/2, -y+1/2, -z'
6 '-x, -y, z+1/2'
7 '-x+1/2, y+1/2, -z+1/2'
8 'x, y, z'
loop_
_atom_type_symbol
_atom_type_oxidation_number
Mn3+ 3
O2- -2
H1+ 1
loop_
_atom_site_label
_atom_site_type_symbol
_atom_site_symmetry_multiplicity
_atom_site_Wyckoff_symbol
_atom_site_fract_x
_atom_site_fract_y
_atom_site_fract_z
_atom_site_B_iso_or_equiv
_atom_site_occupancy
_atom_site_attached_hydrogens
Mn1 Mn3+ 4 c -.0501(2) 0.1401(2) 0.25 0.0047(1) 1. 0
O1 O2- 4 c 0.2987(8) -.1868(8) 0.25 0.0038(4) 1. 0
O2 O2- 4 c -.1945(8) -.0697(8) 0.25 0.0044(5) 1. 0
#End of TTdata_43000-ICSD