
#(C) 2019 by FIZ Karlsruhe - Leibniz Institute for Information Infrastructure.  All rights reserved.
data_50984-ICSD
_database_code_ICSD 50984
_audit_creation_date 2000-12-16
_audit_update_record 2006-04-01
_chemical_name_systematic 'Dititanium(III) titanium oxide'
_chemical_formula_structural 'Ti3 O5'
_chemical_formula_sum 'O5 Ti3'
_chemical_name_structure_type Pseudobrookite-Fe2TiO5
_exptl_crystal_density_diffrn 3.98
_cell_measurement_temperature 514.
_publ_section_title 'Phase transitions of Ti3 O5'
loop_
_citation_id
_citation_journal_full
_citation_year
_citation_journal_volume
_citation_page_first
_citation_page_last
_citation_journal_id_ASTM
primary 'Journal of Solid State Chemistry' 1998 136 67 73 JSSCBI
loop_
_publ_author_name
'Onoda, M.'
_cell_length_a 3.798(2)
_cell_length_b 9.846(3)
_cell_length_c 9.988(4)
_cell_angle_alpha 90.
_cell_angle_beta 90.
_cell_angle_gamma 90.
_cell_volume 373.5
_cell_formula_units_Z 4
_symmetry_space_group_name_H-M 'C m c m'
_symmetry_Int_Tables_number 63
_refine_ls_R_factor_all 0.038
loop_
_symmetry_equiv_pos_site_id
_symmetry_equiv_pos_as_xyz
1 '-x, y, -z+1/2'
2 '-x, -y, z+1/2'
3 '-x, y, z'
4 '-x, -y, -z'
5 'x, -y, z+1/2'
6 'x, y, -z+1/2'
7 'x, -y, -z'
8 'x, y, z'
9 '-x+1/2, y+1/2, -z+1/2'
10 '-x+1/2, -y+1/2, z+1/2'
11 '-x+1/2, y+1/2, z'
12 '-x+1/2, -y+1/2, -z'
13 'x+1/2, -y+1/2, z+1/2'
14 'x+1/2, y+1/2, -z+1/2'
15 'x+1/2, -y+1/2, -z'
16 'x+1/2, y+1/2, z'
loop_
_atom_type_symbol
_atom_type_oxidation_number
Ti3+ 3.33
O2- -2
loop_
_atom_site_label
_atom_site_type_symbol
_atom_site_symmetry_multiplicity
_atom_site_Wyckoff_symbol
_atom_site_fract_x
_atom_site_fract_y
_atom_site_fract_z
_atom_site_B_iso_or_equiv
_atom_site_occupancy
_atom_site_attached_hydrogens
Ti1 Ti3+ 8 f 0 0.63376(4) 0.55982(5) . 1. 0
Ti2 Ti3+ 4 c 0 0.69515(6) 0.25 . 1. 0
O1 O2- 8 f 0 0.1851(2) 0.5687(2) . 1. 0
O2 O2- 8 f 0 0.5484(2) 0.3798(2) . 1. 0
O3 O2- 4 c 0 0.7369(3) 0.75 . 1. 0
loop_
_atom_site_aniso_label
_atom_site_aniso_type_symbol
_atom_site_aniso_U_11
_atom_site_aniso_U_22
_atom_site_aniso_U_33
_atom_site_aniso_U_12
_atom_site_aniso_U_13
_atom_site_aniso_U_23
Ti1 Ti3+ 0.0078(1) 0.0088(1) 0.0121(1) 0 0.0007(1) 0
Ti2 Ti3+ 0.0090(2) 0.0087(2) 0.0089(2) 0 0 0
O1 O2- 0.0094(6) 0.0134(6) 0.0119(7) 0 -.0013(5) 0
O2 O2- 0.0263(10) 0.0109(6) 0.0116(7) 0 0.0019(6) 0
O3 O2- 0.0097(8) 0.0157(10) 0.0098(8) 0 0 0
#End of TTdata_50984-ICSD