
#(C) 2019 by FIZ Karlsruhe - Leibniz Institute for Information Infrastructure.  All rights reserved.
data_51229-ICSD
_database_code_ICSD 51229
_audit_creation_date 2002-04-01
_audit_update_record 2012-08-01
_chemical_name_systematic 'Lithium titanium oxide (2.39/3.4/8)'
_chemical_formula_structural 'Li.6 Ti3.4 O8'
_chemical_formula_sum 'Li0.6 O8 Ti3.4'
_chemical_name_structure_type VO2
_chemical_name_mineral Pseudobrookite
_exptl_crystal_density_diffrn 3.47
_publ_section_title
'Nonstoichiometric Li-pseudobrookite(ss) in the Li2 O-Fe2 O3-Ti O2 system'
loop_
_citation_id
_citation_journal_full
_citation_year
_citation_journal_volume
_citation_page_first
_citation_page_last
_citation_journal_id_ASTM
primary 'Journal of Solid State Chemistry' 1998 141 221 228 JSSCBI
loop_
_publ_author_name
'Grey, I.E.'
'Li, C.'
'Ness, T.'
_cell_length_a 9.5505(1)
_cell_length_b 2.9453(1)
_cell_length_c 5.0164(1)
_cell_angle_alpha 90.
_cell_angle_beta 90.
_cell_angle_gamma 90.
_cell_volume 141.11
_cell_formula_units_Z 1
_symmetry_space_group_name_H-M 'P n m a'
_symmetry_Int_Tables_number 62
_refine_ls_R_factor_all 0.054
loop_
_symmetry_equiv_pos_site_id
_symmetry_equiv_pos_as_xyz
1 'x+1/2, y, -z+1/2'
2 'x, -y+1/2, z'
3 '-x+1/2, y+1/2, z+1/2'
4 '-x, -y, -z'
5 '-x+1/2, -y, z+1/2'
6 '-x, y+1/2, -z'
7 'x+1/2, -y+1/2, -z+1/2'
8 'x, y, z'
loop_
_atom_type_symbol
_atom_type_oxidation_number
Li1+ 1
Ti4+ 4
O2- -2
loop_
_atom_site_label
_atom_site_type_symbol
_atom_site_symmetry_multiplicity
_atom_site_Wyckoff_symbol
_atom_site_fract_x
_atom_site_fract_y
_atom_site_fract_z
_atom_site_B_iso_or_equiv
_atom_site_occupancy
_atom_site_attached_hydrogens
Li1 Li1+ 4 c 0.1394(1) 0.25 0.9680(2) 0.98(3) 0.15 0
Ti1 Ti4+ 4 c 0.1394(1) 0.25 0.9680(2) 0.98(3) 0.85 0
O1 O2- 4 c 0.2736(3) 0.25 0.6712(9) 1.35(9) 1. 0
O2 O2- 4 c 0.9662(4) 0.25 0.2023(6) 1.17(8) 1. 0
#End of TTdata_51229-ICSD