
#(C) 2019 by FIZ Karlsruhe - Leibniz Institute for Information Infrastructure.  All rights reserved.
data_5455-ICSD
_database_code_ICSD 5455
_audit_creation_date 2016-02-01
_chemical_name_systematic 'Dihydrogen trititanium oxide'
_chemical_formula_structural 'Ti3 O5 (O H)2'
_chemical_formula_sum 'H2 O7 Ti3'
_chemical_name_structure_type H2Ti3O7
_exptl_crystal_density_diffrn 3.19
_publ_section_title
'The rearrangement of the structure of layer titanates during ion exchange'
loop_
_citation_id
_citation_journal_full
_citation_year
_citation_journal_volume
_citation_page_first
_citation_page_last
_citation_journal_id_ASTM
primary 'Russian Journal of Inorganic Chemistry' 1987 32 639 643 RJICAQ
loop_
_publ_author_name
'Nalbandyan, V.B.'
'Trubnikov, I.L.'
_cell_length_a 15.99
_cell_length_b 3.738
_cell_length_c 9.172
_cell_angle_alpha 90.
_cell_angle_beta 101.5
_cell_angle_gamma 90.
_cell_volume 537.21
_cell_formula_units_Z 4
_symmetry_space_group_name_H-M 'C 1 2/m 1'
_symmetry_Int_Tables_number 12
loop_
_symmetry_equiv_pos_site_id
_symmetry_equiv_pos_as_xyz
1 '-x, y, -z'
2 '-x, -y, -z'
3 'x, -y, z'
4 'x, y, z'
5 '-x+1/2, y+1/2, -z'
6 '-x+1/2, -y+1/2, -z'
7 'x+1/2, -y+1/2, z'
8 'x+1/2, y+1/2, z'
loop_
_atom_type_symbol
_atom_type_oxidation_number
Ti4+ 4
O2- -2
H1+ 1
loop_
_atom_site_label
_atom_site_type_symbol
_atom_site_symmetry_multiplicity
_atom_site_Wyckoff_symbol
_atom_site_fract_x
_atom_site_fract_y
_atom_site_fract_z
_atom_site_B_iso_or_equiv
_atom_site_occupancy
_atom_site_attached_hydrogens
Ti1 Ti4+ 4 i 0.125 0 0.323 . 1. 0
Ti2 Ti4+ 4 i 0.225 0 0.723 . 1. 0
Ti3 Ti4+ 4 i 0.168 0 0.011 . 1. 0
O1 O2- 4 i 0.169 0 0.541 . 1. 0
O2 O2- 4 i 0.134 0 0.816 . 1. 0
O3 O2- 4 i 0.085 0 0.108 . 1. 0
O4 O2- 4 i 0.007 0 0.355 . 1. 0
O5 O2- 4 i 0.651 0 0.324 . 1. 0
O6 O2- 4 i 0.71 0 0.038 . 1. 0
O7 O2- 4 i 0.239 0 0.244 . 1. 0
#End of TTdata_5455-ICSD