
#(C) 2019 by FIZ Karlsruhe - Leibniz Institute for Information Infrastructure.  All rights reserved.
data_6095-ICSD
_database_code_ICSD 6095
_audit_creation_date 1980-01-01
_audit_update_record 2015-08-01
_chemical_name_systematic 'Titanium(III) oxide'
_chemical_formula_structural 'Ti2 O3'
_chemical_formula_sum 'O3 Ti2'
_chemical_name_structure_type Corundum-Al2O3
_chemical_name_mineral Tistarite
_exptl_crystal_density_diffrn 4.55
_publ_section_title

;
The crystal structure of Ti2 O3, A semiconductor, and (Ti.900 V.100)2 O3, A
semimetal
;
loop_
_citation_id
_citation_journal_full
_citation_year
_citation_journal_volume
_citation_page_first
_citation_page_last
_citation_journal_id_ASTM
primary 'Journal of Solid State Chemistry' 1974 9 255 260 JSSCBI
loop_
_publ_author_name
'Robinson, W.R.'
_cell_length_a 5.4325(8)
_cell_length_b 5.4325(8)
_cell_length_c 5.4325(8)
_cell_angle_alpha 56.75(1)
_cell_angle_beta 56.75(1)
_cell_angle_gamma 56.75(1)
_cell_volume 104.86
_cell_formula_units_Z 2
_symmetry_space_group_name_H-M 'R -3 c R'
_symmetry_Int_Tables_number 167
_refine_ls_R_factor_all 0.031
loop_
_symmetry_equiv_pos_site_id
_symmetry_equiv_pos_as_xyz
1 '-x+1/2, -z+1/2, -y+1/2'
2 '-z+1/2, -y+1/2, -x+1/2'
3 '-y+1/2, -x+1/2, -z+1/2'
4 'x+1/2, z+1/2, y+1/2'
5 'z+1/2, y+1/2, x+1/2'
6 'y+1/2, x+1/2, z+1/2'
7 '-z, -x, -y'
8 '-y, -z, -x'
9 '-x, -y, -z'
10 'z, x, y'
11 'y, z, x'
12 'x, y, z'
loop_
_atom_type_symbol
_atom_type_oxidation_number
Ti3+ 3
O2- -2
loop_
_atom_site_label
_atom_site_type_symbol
_atom_site_symmetry_multiplicity
_atom_site_Wyckoff_symbol
_atom_site_fract_x
_atom_site_fract_y
_atom_site_fract_z
_atom_site_B_iso_or_equiv
_atom_site_occupancy
_atom_site_attached_hydrogens
Ti1 Ti3+ 4 c 0.34464(4) 0.34464(4) 0.34464(4) . 1. 0
O1 O2- 6 e 0.5624(2) -.0624(2) 0.25 . 1. 0
loop_
_atom_site_aniso_label
_atom_site_aniso_type_symbol
_atom_site_aniso_B_11
_atom_site_aniso_B_22
_atom_site_aniso_B_33
_atom_site_aniso_B_12
_atom_site_aniso_B_13
_atom_site_aniso_B_23
Ti1 Ti3+ 0.0077(1) 0.0077(1) 0.0077(1) -.0028(1) -.0028(1) -.0028(1)
O1 O2- 0.0090(5) 0.0090(5) 0.0066(7) -.0003(5) -.0047(4) -.0047(4)
#End of TTdata_6095-ICSD