
#(C) 2019 by FIZ Karlsruhe - Leibniz Institute for Information Infrastructure.  All rights reserved.
data_6098-ICSD
_database_code_ICSD 6098
_audit_creation_date 1986-09-24
_audit_update_record 2012-02-01
_chemical_name_systematic 'Titanium oxide (4/7)'
_chemical_formula_structural 'Ti4 O7'
_chemical_formula_sum 'O7 Ti4'
_chemical_name_structure_type Ti4O7
_exptl_crystal_density_diffrn 4.33
_publ_section_title

;
Crystal structure studies on the homologous series Tin O2n-1 Vn O2n-1 Tin-2
Cr2 O2n-1
;
loop_
_citation_id
_citation_journal_full
_citation_year
_citation_journal_volume
_citation_page_first
_citation_page_last
_citation_journal_id_ASTM
primary 'Arkiv foer Kemi' 1963 21 413 426 ARKEAD
loop_
_publ_author_name
'Andersson, S.'
'Jahnberg, L.'
_cell_length_a 5.6
_cell_length_b 7.13
_cell_length_c 12.46
_cell_angle_alpha 95.1
_cell_angle_beta 95.1
_cell_angle_gamma 108.8
_cell_volume 465.44
_cell_formula_units_Z 4
_symmetry_space_group_name_H-M 'P -1'
_symmetry_Int_Tables_number 2
loop_
_symmetry_equiv_pos_site_id
_symmetry_equiv_pos_as_xyz
1 '-x, -y, -z'
2 'x, y, z'
loop_
_atom_type_symbol
_atom_type_oxidation_number
Ti0+ 0
O0+ 0
loop_
_atom_site_label
_atom_site_type_symbol
_atom_site_symmetry_multiplicity
_atom_site_Wyckoff_symbol
_atom_site_fract_x
_atom_site_fract_y
_atom_site_fract_z
_atom_site_B_iso_or_equiv
_atom_site_occupancy
_atom_site_attached_hydrogens
Ti1 Ti0+ 2 i 0.214 0.143 0.071 . 1. 0
Ti2 Ti0+ 2 i 0.214 0.643 0.071 . 1. 0
Ti3 Ti0+ 2 i 0.643 0.429 0.214 . 1. 0
Ti4 Ti0+ 2 i 0.643 0.929 0.214 . 1. 0
Ti5 Ti0+ 2 i 0.357 0.071 0.286 . 1. 0
Ti6 Ti0+ 2 i 0.357 0.571 0.286 . 1. 0
Ti7 Ti0+ 2 i 0.786 0.357 0.429 . 1. 0
Ti8 Ti0+ 2 i 0.786 0.857 0.429 . 1. 0
O1 O0+ 2 i 0.083 0.361 0.028 . 1. 0
O2 O0+ 2 i 0.567 0.313 0.06 . 1. 0
O3 O0+ 2 i 0.861 0.972 0.083 . 1. 0
O4 O0+ 2 i 0.345 0.924 0.115 . 1. 0
O5 O0+ 2 i 0.512 0.647 0.171 . 1. 0
O6 O0+ 2 i 0.996 0.599 0.203 . 1. 0
O7 O0+ 2 i 0.226 0.29 0.242 . 1. 0
O8 O0+ 2 i 0.774 0.21 0.258 . 1. 0
O9 O0+ 2 i 0.004 0.901 0.297 . 1. 0
O10 O0+ 2 i 0.488 0.853 0.329 . 1. 0
O11 O0+ 2 i 0.655 0.576 0.385 . 1. 0
O12 O0+ 2 i 0.139 0.528 0.417 . 1. 0
O13 O0+ 2 i 0.433 0.187 0.44 . 1. 0
O14 O0+ 2 i 0.917 0.139 0.472 . 1. 0
#End of TTdata_6098-ICSD