
#(C) 2019 by FIZ Karlsruhe - Leibniz Institute for Information Infrastructure.  All rights reserved.
data_62069-ICSD
_database_code_ICSD 62069
_audit_creation_date 1988-02-22
_audit_update_record 2005-10-01
_chemical_name_systematic 'Manganese(IV) fluoride - alpha'
_chemical_formula_structural 'Mn F4'
_chemical_formula_sum 'F4 Mn1'
_chemical_name_structure_type MnF4
_exptl_crystal_density_diffrn 3.61
_publ_section_title 'Die Kristallstruktur von Mangantetrafluorid'
loop_
_citation_id
_citation_journal_full
_citation_year
_citation_journal_volume
_citation_page_first
_citation_page_last
_citation_journal_id_ASTM
primary 'Zeitschrift fuer Naturforschung, B: A Journal of Chemical Sciences'
1987 42 1102 1106 ZNBSEN
loop_
_publ_author_name
'Mueller, B.G.'
'Serafin, M.'
_cell_length_a 12.63(1)
_cell_length_b 12.63(1)
_cell_length_c 6.049(5)
_cell_angle_alpha 90.
_cell_angle_beta 90.
_cell_angle_gamma 90.
_cell_volume 964.92
_cell_formula_units_Z 16
_symmetry_space_group_name_H-M 'I 41/a Z'
_symmetry_Int_Tables_number 88
_refine_ls_R_factor_all 0.042
loop_
_symmetry_equiv_pos_site_id
_symmetry_equiv_pos_as_xyz
1 '-y+3/4, x+3/4, -z+3/4'
2 'y+1/4, -x+3/4, -z+3/4'
3 'x, y+1/2, -z'
4 '-x, -y, -z'
5 'y+1/4, -x+1/4, z+1/4'
6 '-y+3/4, x+1/4, z+1/4'
7 '-x, -y+1/2, z'
8 'x, y, z'
9 '-y+1/4, x+1/4, -z+1/4'
10 'y+3/4, -x+1/4, -z+1/4'
11 'x+1/2, y, -z+1/2'
12 '-x+1/2, -y+1/2, -z+1/2'
13 'y+3/4, -x+3/4, z+3/4'
14 '-y+1/4, x+3/4, z+3/4'
15 '-x+1/2, -y, z+1/2'
16 'x+1/2, y+1/2, z+1/2'
loop_
_atom_type_symbol
_atom_type_oxidation_number
Mn4+ 4
F1- -1
loop_
_atom_site_label
_atom_site_type_symbol
_atom_site_symmetry_multiplicity
_atom_site_Wyckoff_symbol
_atom_site_fract_x
_atom_site_fract_y
_atom_site_fract_z
_atom_site_B_iso_or_equiv
_atom_site_occupancy
_atom_site_attached_hydrogens
Mn1 Mn4+ 16 f 0.13017(2) 0.36980(3) 0.48466(3) . 1. 0
F1 F1- 16 f 0.1337(2) 0.2256(1) 0.5328(2) . 1. 0
F2 F1- 16 f 0.1294(2) 0.0157(1) 0.5296(2) . 1. 0
F3 F1- 16 f 0.0309(1) 0.3608(2) 0.2966(2) . 1. 0
F4 F1- 16 f 0.2282(1) 0.3608(2) 0.2921(2) . 1. 0
loop_
_atom_site_aniso_label
_atom_site_aniso_type_symbol
_atom_site_aniso_U_11
_atom_site_aniso_U_22
_atom_site_aniso_U_33
_atom_site_aniso_U_12
_atom_site_aniso_U_13
_atom_site_aniso_U_23
Mn1 Mn4+ 0.0076(1) 0.0072(1) 0.0118(1) 0.0002(2) -.0002(1) 0.0011(1)
F1 F1- 0.0162(6) 0.0086(6) 0.0169(5) 0.0019(6) -.0065(8) 0.0004(5)
F2 F1- 0.0162(6) 0.0091(6) 0.0163(5) -.0001(6) 0.0070(8) -.0024(2)
F3 F1- 0.0162(7) 0.0195(11) 0.0189(5) -.0049(6) -.0077(7) -.0025(7)
F4 F1- 0.0156(7) 0.0216(11) 0.0177(5) 0.0010(6) 0.0043(7) 0.0059(7)
#End of TTdata_62069-ICSD