
#(C) 2019 by FIZ Karlsruhe - Leibniz Institute for Information Infrastructure, and the U.S. Secretary of
#Commerce on behalf of the United States.  All rights reserved.
data_647543-ICSD
_database_code_ICSD 647543
_audit_creation_date 2013-08-01
_chemical_name_systematic 'Titanium oxide (5/3) - beta'
_chemical_formula_structural 'Ti3 O5'
_chemical_formula_sum 'O5 Ti3'
_chemical_name_structure_type Ti3O5
_exptl_crystal_density_diffrn 4.24
_publ_section_title

;
A high-pressure study of Ti3 O5 by X-ray diffraction and synchrotron
radiation. 1. Pressures up to 38.6 G Pa
;
_publ_section_comment 'Cell and Type only determined'
loop_
_citation_id
_citation_journal_full
_citation_year
_citation_journal_volume
_citation_page_first
_citation_page_last
_citation_journal_id_ASTM
primary 'Journal of Applied Crystallography' 1989 22 119 122 JACGAR
loop_
_publ_author_name
'Asbrink, S.'
'Gerward, L.'
'Olsen, J.S.'
_cell_length_a 9.76
_cell_length_b 3.8
_cell_length_c 9.46
_cell_angle_alpha 90.
_cell_angle_beta 91.5
_cell_angle_gamma 90.
_cell_volume 350.73
_cell_formula_units_Z 4
_symmetry_space_group_name_H-M 'C 1 2/m 1'
_symmetry_Int_Tables_number 12
loop_
_symmetry_equiv_pos_site_id
_symmetry_equiv_pos_as_xyz
1 '-x, y, -z'
2 '-x, -y, -z'
3 'x, -y, z'
4 'x, y, z'
5 '-x+1/2, y+1/2, -z'
6 '-x+1/2, -y+1/2, -z'
7 'x+1/2, -y+1/2, z'
8 'x+1/2, y+1/2, z'
loop_
_atom_type_symbol
_atom_type_oxidation_number
Ti3+ 3
Ti4+ 4
Ti3+ 3
O2- -2
loop_
_atom_site_label
_atom_site_type_symbol
_atom_site_symmetry_multiplicity
_atom_site_Wyckoff_symbol
_atom_site_fract_x
_atom_site_fract_y
_atom_site_fract_z
_atom_site_B_iso_or_equiv
_atom_site_occupancy
_atom_site_attached_hydrogens
Ti1 Ti3+ 4 i 0.128 0 0.044 . 1. 0
Ti2 Ti4+ 4 i 0.779 0 0.267 . 1. 0
Ti3 Ti3+ 4 i 0.054 0 0.366 . 1. 0
O1 O2- 4 i 0.676 0 0.06 . 1. 0
O2 O2- 4 i 0.241 0 0.245 . 1. 0
O3 O2- 4 i 0.588 0 0.345 . 1. 0
O4 O2- 4 i 0.953 0 0.158 . 1. 0
O5 O2- 4 i 0.866 0 0.441 . 1. 0
#End of TTdata_647543-ICSD