
#(C) 2019 by FIZ Karlsruhe - Leibniz Institute for Information Infrastructure, and the U.S. Secretary of
#Commerce on behalf of the United States.  All rights reserved.
data_653560-ICSD
_database_code_ICSD 653560
_audit_creation_date 2008-07-07
_audit_update_record 2017-08-01
_chemical_name_systematic 'Titanium oxide (5/9)'
_chemical_formula_structural 'Ti5 O9'
_chemical_formula_sum 'O9 Ti5'
_chemical_name_structure_type Ti5O9
_exptl_crystal_density_diffrn 4.31
_publ_section_title 'The crystal structure of Ti5 O9'
loop_
_citation_id
_citation_journal_full
_citation_year
_citation_journal_volume
_citation_page_first
_citation_page_last
_citation_journal_id_ASTM
primary 'Acta Chemica Scandinavica ' 1960 14 1161 1172 ACSAA4
loop_
_publ_author_name
'Andersson, Sten'
_cell_length_a 5.569
_cell_length_b 7.12
_cell_length_c 8.865
_cell_angle_alpha 97.55
_cell_angle_beta 112.34
_cell_angle_gamma 108.5
_cell_volume 295.33
_cell_formula_units_Z 2
_symmetry_space_group_name_H-M 'P 1'
_symmetry_Int_Tables_number 1
_refine_ls_R_factor_all 0.18
loop_
_symmetry_equiv_pos_site_id
_symmetry_equiv_pos_as_xyz
1 'x, y, z'
loop_
_atom_type_symbol
_atom_type_oxidation_number
O0+ 0
Ti0+ 0
loop_
_atom_site_label
_atom_site_type_symbol
_atom_site_symmetry_multiplicity
_atom_site_Wyckoff_symbol
_atom_site_fract_x
_atom_site_fract_y
_atom_site_fract_z
_atom_site_B_iso_or_equiv
_atom_site_occupancy
_atom_site_attached_hydrogens
O1 O0+ 1 a 0.63 0.32 0.11 . 1 0
O2 O0+ 1 a 0.76 0.96 0.54 . 1 0
O3 O0+ 1 a 0.01 0.7 0.57 . 1 0
O4 O0+ 1 a 0.49 0.63 0.64 . 1 0
O5 O0+ 1 a 0.8 0.35 0.7 . 1 0
O6 O0+ 1 a 0.33 0.3 0.77 . 1 0
O7 O0+ 1 a 0.53 0.03 0.8 . 1 0
O8 O0+ 1 a 0.08 0.99 0.88 . 1 0
O9 O0+ 1 a 0.89 0.62 0.97 . 1 0
O10 O0+ 1 a 0.37 0.68 0.89 . 1 0
O11 O0+ 1 a 0.11 0.38 0.03 . 1 0
O12 O0+ 1 a 0.92 0.01 0.12 . 1 0
O13 O0+ 1 a 0.47 0.97 0.2 . 1 0
O14 O0+ 1 a 0.67 0.7 0.23 . 1 0
O15 O0+ 1 a 0.2 0.65 0.3 . 1 0
O16 O0+ 1 a 0.51 0.37 0.36 . 1 0
O17 O0+ 1 a 0.99 0.3 0.43 . 1 0
O18 O0+ 1 a 0.24 0.04 0.46 . 1 0
Ti1 Ti0+ 1 a 0.276 0.17 0.107 . 1 0
Ti2 Ti0+ 1 a 0.724 0.83 0.893 . 1 0
Ti3 Ti0+ 1 a 0.276 0.67 0.107 . 1 0
Ti4 Ti0+ 1 a 0.852 0.008 0.316 . 1 0
Ti5 Ti0+ 1 a 0.852 0.502 0.316 . 1 0
Ti6 Ti0+ 1 a 0.575 0.17 0.47 . 1 0
Ti7 Ti0+ 1 a 0.575 0.67 0.47 . 1 0
Ti8 Ti0+ 1 a 0.148 0.992 0.684 . 1 0
Ti9 Ti0+ 1 a 0.148 0.492 0.684 . 1 0
Ti10 Ti0+ 1 a 0.724 0.33 0.893 . 1 0
#End of TTdata_653560-ICSD