
#(C) 2019 by FIZ Karlsruhe - Leibniz Institute for Information Infrastructure, and the U.S. Secretary of
#Commerce on behalf of the United States.  All rights reserved.
data_671270-ICSD
_database_code_ICSD 671270
_audit_creation_date 2017-02-01
_chemical_name_systematic 'Titanium Oxide'
_chemical_formula_structural 'Ti O2'
_chemical_formula_sum 'O2 Ti1'
_exptl_crystal_density_diffrn 7.38
_cell_measurement_pressure 200000000.
_publ_section_title
'Ten-fold coordinated polymorph and metallization of TiO2 under high pressure'
loop_
_citation_id
_citation_journal_full
_citation_year
_citation_journal_volume
_citation_page_first
_citation_page_last
_citation_journal_id_ASTM
primary 'RSC Advances' 2015 5 54253 54257 RSCACL
loop_
_publ_author_name
'Zhong, Xin'
'Wang, Jianyun'
'Zhang, Shoutao'
'Yang, Guochun'
'Wang, Yanchao'
_cell_length_a 4.8061
_cell_length_b 4.8061
_cell_length_c 2.6976
_cell_angle_alpha 90
_cell_angle_beta 90
_cell_angle_gamma 120
_cell_volume 53.96
_cell_formula_units_Z 3
_symmetry_space_group_name_H-M 'P -6 2 m'
_symmetry_Int_Tables_number 189
loop_
_symmetry_equiv_pos_site_id
_symmetry_equiv_pos_as_xyz
1 '-x, -x+y, -z'
2 'x-y, -y, -z'
3 'y, x, -z'
4 '-x, -x+y, z'
5 'x-y, -y, z'
6 'y, x, z'
7 '-x+y, -x, -z'
8 '-y, x-y, -z'
9 'x, y, -z'
10 '-x+y, -x, z'
11 '-y, x-y, z'
12 'x, y, z'
loop_
_atom_type_symbol
_atom_type_oxidation_number
Ti0+ 0
O0+ 0
loop_
_atom_site_label
_atom_site_type_symbol
_atom_site_symmetry_multiplicity
_atom_site_Wyckoff_symbol
_atom_site_fract_x
_atom_site_fract_y
_atom_site_fract_z
_atom_site_B_iso_or_equiv
_atom_site_occupancy
_atom_site_attached_hydrogens
Ti1 Ti0+ 2 d 0.333333 0.666667 0.5 1. 1. 0
Ti2 Ti0+ 1 a 0. 0. 0. 1. 1. 0
O1 O0+ 3 g 0. 0.259 0.5 1. 1. 0
O2 O0+ 3 f 0.406 0.406 0. 1. 1. 0
#End of TTdata_671270-ICSD