
#(C) 2019 by FIZ Karlsruhe - Leibniz Institute for Information Infrastructure, and the U.S. Secretary of
#Commerce on behalf of the United States.  All rights reserved.
data_671954-ICSD
_database_code_ICSD 671954
_audit_creation_date 2017-08-01
_chemical_name_systematic 'Titanium Oxide'
_chemical_formula_structural 'Ti O2'
_chemical_formula_sum 'O2 Ti1'
_exptl_crystal_density_diffrn 4.14
_publ_section_title

;
Three-phase junction for modulating electron-hole migration in anatase-rutile
photocatalysts
;
loop_
_citation_id
_citation_journal_full
_citation_year
_citation_journal_volume
_citation_page_first
_citation_page_last
_citation_journal_id_ASTM
primary 'Chemical Science' 2015 6 3483 3494 CSHCCN
loop_
_publ_author_name
'Zhao, Wei-Na'
'Zhu, Sheng-Cai'
'Li, Ye-Fei'
'Liu, Zhi-Pan'
_cell_length_a 17.4876
_cell_length_b 4.6088
_cell_length_c 5.5723
_cell_angle_alpha 90
_cell_angle_beta 92.485
_cell_angle_gamma 90
_cell_volume 448.68
_cell_formula_units_Z 14
_symmetry_space_group_name_H-M 'P 1 21/c 1'
_symmetry_Int_Tables_number 14
loop_
_symmetry_equiv_pos_site_id
_symmetry_equiv_pos_as_xyz
1 'x, -y+1/2, z+1/2'
2 '-x, -y, -z'
3 '-x, y+1/2, -z+1/2'
4 'x, y, z'
loop_
_atom_type_symbol
_atom_type_oxidation_number
O0+ 0
Ti0+ 0
loop_
_atom_site_label
_atom_site_type_symbol
_atom_site_symmetry_multiplicity
_atom_site_Wyckoff_symbol
_atom_site_fract_x
_atom_site_fract_y
_atom_site_fract_z
_atom_site_B_iso_or_equiv
_atom_site_occupancy
_atom_site_attached_hydrogens
O1 O0+ 4 e 0.9773 0.2266 0.6156 1. 1. 0
O2 O0+ 4 e 0.6906 0.2084 0.5943 1. 1. 0
O3 O0+ 4 e 0.401 0.2027 0.9715 1. 1. 0
O4 O0+ 4 e 0.8355 0.2698 0.8683 1. 1. 0
O5 O0+ 4 e 0.5452 0.1999 0.2879 1. 1. 0
O6 O0+ 4 e 0.8812 0.7707 0.606 1. 1. 0
O7 O0+ 4 e 0.7405 0.7206 0.848 1. 1. 0
Ti1 Ti0+ 4 e 0.7878 0.9985 0.6573 1. 1. 0
Ti2 Ti0+ 2 b 0.5 0. 0. 1. 1. 0
Ti3 Ti0+ 4 e 0.929 0.4978 0.8137 1. 1. 0
Ti4 Ti0+ 4 e 0.6446 0.5005 0.8135 1. 1. 0
#End of TTdata_671954-ICSD