
#(C) 2019 by FIZ Karlsruhe - Leibniz Institute for Information Infrastructure, and the U.S. Secretary of
#Commerce on behalf of the United States.  All rights reserved.
data_671955-ICSD
_database_code_ICSD 671955
_audit_creation_date 2017-08-01
_chemical_name_systematic 'Titanium Oxide'
_chemical_formula_structural 'Ti O2'
_chemical_formula_sum 'O2 Ti1'
_exptl_crystal_density_diffrn 3.97
_publ_section_title

;
Three-phase junction for modulating electron-hole migration in anatase-rutile
photocatalysts
;
loop_
_citation_id
_citation_journal_full
_citation_year
_citation_journal_volume
_citation_page_first
_citation_page_last
_citation_journal_id_ASTM
primary 'Chemical Science' 2015 6 3483 3494 CSHCCN
loop_
_publ_author_name
'Zhao, Wei-Na'
'Zhu, Sheng-Cai'
'Li, Ye-Fei'
'Liu, Zhi-Pan'
_cell_length_a 18.7819
_cell_length_b 5.5407
_cell_length_c 5.1349
_cell_angle_alpha 90
_cell_angle_beta 91.059
_cell_angle_gamma 90
_cell_volume 534.27
_cell_formula_units_Z 16
_symmetry_space_group_name_H-M 'P 1 2/c 1'
_symmetry_Int_Tables_number 13
loop_
_symmetry_equiv_pos_site_id
_symmetry_equiv_pos_as_xyz
1 'x, -y, z+1/2'
2 '-x, -y, -z'
3 '-x, y, -z+1/2'
4 'x, y, z'
loop_
_atom_type_symbol
_atom_type_oxidation_number
O0+ 0
Ti0+ 0
loop_
_atom_site_label
_atom_site_type_symbol
_atom_site_symmetry_multiplicity
_atom_site_Wyckoff_symbol
_atom_site_fract_x
_atom_site_fract_y
_atom_site_fract_z
_atom_site_B_iso_or_equiv
_atom_site_occupancy
_atom_site_attached_hydrogens
O1 O0+ 4 g 0.8136 0.8917 0.8281 1. 1. 0
O2 O0+ 4 g 0.6876 0.3703 0.5956 1. 1. 0
O3 O0+ 4 g 0.5655 0.1213 0.4212 1. 1. 0
O4 O0+ 4 g 0.4454 0.3785 0.5775 1. 1. 0
O5 O0+ 4 g 0.3253 0.8741 0.9118 1. 1. 0
O6 O0+ 4 g 0.2025 0.3941 0.5472 1. 1. 0
O7 O0+ 4 g 0.9252 0.1127 0.6895 1. 1. 0
O8 O0+ 4 g 0.9453 0.3861 0.0714 1. 1. 0
Ti1 Ti0+ 4 g 0.8701 0.8389 0.5076 1. 1. 0
Ti2 Ti0+ 4 g 0.7404 0.3356 0.2712 1. 1. 0
Ti3 Ti0+ 4 g 0.6201 0.8331 0.2653 1. 1. 0
Ti4 Ti0+ 2 f 0.5 0.329 0.25 1. 1. 0
Ti5 Ti0+ 2 e 0. 0.3408 0.75 1. 1. 0
#End of TTdata_671955-ICSD