
#(C) 2019 by FIZ Karlsruhe - Leibniz Institute for Information Infrastructure, and the U.S. Secretary of
#Commerce on behalf of the United States.  All rights reserved.
data_672421-ICSD
_database_code_ICSD 672421
_audit_creation_date 2017-08-01
_chemical_name_systematic 'Manganese Oxide'
_chemical_formula_structural 'Mn3 O4'
_chemical_formula_sum 'Mn3 O4'
_exptl_crystal_density_diffrn 4.78
_publ_section_title

;
Density functional theory study of ferromagnetically and ferrimagnetically
ordered spinel oxide Mn3O4. A quantum mechanical simulation of their IR and
Raman spectra
;
loop_
_citation_id
_citation_journal_full
_citation_year
_citation_journal_volume
_citation_page_first
_citation_page_last
_citation_journal_id_ASTM
primary 'Journal of Alloys and Compounds' 2016 688 692 698 JALCEU
loop_
_publ_author_name
'Larbi, T.'
'Doll, K.'
'Manoubi, T.'
_cell_length_a 5.825
_cell_length_b 5.811
_cell_length_c 9.395
_cell_angle_alpha 90
_cell_angle_beta 90
_cell_angle_gamma 90
_cell_volume 318.01
_cell_formula_units_Z 4
_symmetry_space_group_name_H-M 'I m m a'
_symmetry_Int_Tables_number 74
loop_
_symmetry_equiv_pos_site_id
_symmetry_equiv_pos_as_xyz
1 '-x, y+1/2, -z'
2 '-x, -y+1/2, z'
3 '-x, y, z'
4 '-x, -y, -z'
5 'x, -y+1/2, z'
6 'x, y+1/2, -z'
7 'x, -y, -z'
8 'x, y, z'
9 '-x+1/2, y, -z+1/2'
10 '-x+1/2, -y, z+1/2'
11 '-x+1/2, y+1/2, z+1/2'
12 '-x+1/2, -y+1/2, -z+1/2'
13 'x+1/2, -y, z+1/2'
14 'x+1/2, y, -z+1/2'
15 'x+1/2, -y+1/2, -z+1/2'
16 'x+1/2, y+1/2, z+1/2'
loop_
_atom_type_symbol
_atom_type_oxidation_number
Mn0+ 0
O0+ 0
loop_
_atom_site_label
_atom_site_type_symbol
_atom_site_symmetry_multiplicity
_atom_site_Wyckoff_symbol
_atom_site_fract_x
_atom_site_fract_y
_atom_site_fract_z
_atom_site_B_iso_or_equiv
_atom_site_occupancy
_atom_site_attached_hydrogens
Mn1 Mn0+ 4 e 0.5 -0.25 -0.1242 1. 1. 0
Mn2 Mn0+ 4 a 0. 0. 0. 1. 1. 0
Mn3 Mn0+ 4 d 0.25 0.25 -0.25 1. 1. 0
O1 O0+ 8 h 0. -0.4704 0.2426 1. 1. 0
O2 O0+ 8 i 0.2192 -0.25 0.0074 1. 1. 0
#End of TTdata_672421-ICSD