
#(C) 2019 by FIZ Karlsruhe - Leibniz Institute for Information Infrastructure, and the U.S. Secretary of
#Commerce on behalf of the United States.  All rights reserved.
data_672706-ICSD
_database_code_ICSD 672706
_audit_creation_date 2018-02-01
_chemical_name_systematic 'Manganese Fluoride'
_chemical_formula_structural 'Mn F2'
_chemical_formula_sum 'F2 Mn1'
_exptl_crystal_density_diffrn 4.55
_cell_measurement_pressure 7200000.
_publ_section_title 'High-pressure structural study of MnF2'
loop_
_citation_id
_citation_journal_full
_citation_year
_citation_journal_volume
_citation_page_first
_citation_page_last
_citation_journal_id_ASTM
primary 'Physical Review B: Condensed Matter and Materials Physics' 2016 93
054101-1 8 PRBMDO
loop_
_publ_author_name
'Stavrou, Elissaios'
'Yao, Yansun'
'Goncharov, Alexander F.'
'Konopkova, Zuzana'
'Raptis, Constantine'
_cell_length_a 10.097
_cell_length_b 5.272
_cell_length_c 5.102
_cell_angle_alpha 90
_cell_angle_beta 90
_cell_angle_gamma 90
_cell_volume 271.58
_cell_formula_units_Z 8
_symmetry_space_group_name_H-M 'P b c a'
_symmetry_Int_Tables_number 61
loop_
_symmetry_equiv_pos_site_id
_symmetry_equiv_pos_as_xyz
1 'x+1/2, y, -z+1/2'
2 'x, -y+1/2, z+1/2'
3 '-x+1/2, y+1/2, z'
4 '-x, -y, -z'
5 '-x+1/2, -y, z+1/2'
6 '-x, y+1/2, -z+1/2'
7 'x+1/2, -y+1/2, -z'
8 'x, y, z'
loop_
_atom_type_symbol
_atom_type_oxidation_number
Mn0+ 0
F0+ 0
loop_
_atom_site_label
_atom_site_type_symbol
_atom_site_symmetry_multiplicity
_atom_site_Wyckoff_symbol
_atom_site_fract_x
_atom_site_fract_y
_atom_site_fract_z
_atom_site_B_iso_or_equiv
_atom_site_occupancy
_atom_site_attached_hydrogens
Mn1 Mn0+ 8 c 0.884 0.034 0.267 1. 1. 0
F1 F0+ 8 c 0.794 0.381 0.146 1. 1. 0
F2 F0+ 8 c 0.972 0.737 0.501 1. 1. 0
#End of TTdata_672706-ICSD