
#(C) 2019 by FIZ Karlsruhe - Leibniz Institute for Information Infrastructure, and the U.S. Secretary of
#Commerce on behalf of the United States.  All rights reserved.
data_673142-ICSD
_database_code_ICSD 673142
_audit_creation_date 2018-02-01
_chemical_name_systematic 'Manganese Titanium Oxide'
_chemical_formula_structural 'Mn Ti O3'
_chemical_formula_sum 'Mn1 O3 Ti1'
_chemical_name_structure_type LiNbO3
_exptl_crystal_density_diffrn 4.67
_publ_section_title 'Ferroelectricity in corundum derivatives'
loop_
_citation_id
_citation_journal_full
_citation_year
_citation_journal_volume
_citation_page_first
_citation_page_last
_citation_journal_id_ASTM
primary 'Physical Review B: Condensed Matter and Materials Physics' 2016 93
134303-1 7 PRBMDO
loop_
_publ_author_name
'Ye, Meng'
'Vanderbilt, David'
_cell_length_a 5.481
_cell_length_b 5.481
_cell_length_c 5.481
_cell_angle_alpha 56.6
_cell_angle_beta 56.6
_cell_angle_gamma 56.6
_cell_volume 107.28
_cell_formula_units_Z 2
_symmetry_space_group_name_H-M 'R 3 c R'
_symmetry_Int_Tables_number 161
loop_
_symmetry_equiv_pos_site_id
_symmetry_equiv_pos_as_xyz
1 'z+1/2, y+1/2, x+1/2'
2 'z, x, y'
3 'x+1/2, z+1/2, y+1/2'
4 'y, z, x'
5 'y+1/2, x+1/2, z+1/2'
6 'x, y, z'
loop_
_atom_type_symbol
_atom_type_oxidation_number
Mn0+ 0
Ti0+ 0
O0+ 0
loop_
_atom_site_label
_atom_site_type_symbol
_atom_site_symmetry_multiplicity
_atom_site_Wyckoff_symbol
_atom_site_fract_x
_atom_site_fract_y
_atom_site_fract_z
_atom_site_B_iso_or_equiv
_atom_site_occupancy
_atom_site_attached_hydrogens
Mn1 Mn0+ 2 a 0.279 0.279 0.279 1. 1. 0
Ti1 Ti0+ 2 a 0. 0. 0. 1. 1. 0
O1 O0+ 6 b 0.348 0.721 0.12 1. 1. 0
#End of TTdata_673142-ICSD