
#(C) 2019 by FIZ Karlsruhe - Leibniz Institute for Information Infrastructure.  All rights reserved.
data_75540-ICSD
_database_code_ICSD 75540
_audit_creation_date 1996-04-22
_audit_update_record 1999-06-02
_chemical_name_systematic 'Lithium manganese oxide (2.7/6.6/16)'
_chemical_formula_structural 'Li2.72 Mn6.64 O16'
_chemical_formula_sum 'Li2.72 Mn6.64 O16'
_chemical_name_mineral 'Hollandite, lithian'
_exptl_crystal_density_diffrn 3.81
_publ_section_title

;
Electrochemical and neutron diffraction study of a prelithiated
hollandite-type Lix Mn O2 phase
;
loop_
_citation_id
_citation_journal_full
_citation_year
_citation_journal_volume
_citation_page_first
_citation_page_last
_citation_journal_id_ASTM
primary 'Molecular Crystals and Liquid Crystals' 1994 244 233 238 MCLCA5
loop_
_publ_author_name
'Botkovitz, P.'
'Brec, R.'
'Deniard, P.'
'Tournoux, M.'
'Burr, G.'
_cell_length_a 9.834(1)
_cell_length_b 2.7846(5)
_cell_length_c 10.191(1)
_cell_angle_alpha 90.
_cell_angle_beta 92.27
_cell_angle_gamma 90.
_cell_volume 278.85
_cell_formula_units_Z 1
_symmetry_space_group_name_H-M 'I 1 2/m 1'
_symmetry_Int_Tables_number 12
_refine_ls_R_factor_all 0.033
loop_
_symmetry_equiv_pos_site_id
_symmetry_equiv_pos_as_xyz
1 'x, -y, z'
2 '-x, -y, -z'
3 '-x, y, -z'
4 'x, y, z'
5 'x+1/2, -y+1/2, z+1/2'
6 '-x+1/2, -y+1/2, -z+1/2'
7 '-x+1/2, y+1/2, -z+1/2'
8 'x+1/2, y+1/2, z+1/2'
loop_
_atom_type_symbol
_atom_type_oxidation_number
Mn4+ 4.409
O2- -2
Li1+ 1
loop_
_atom_site_label
_atom_site_type_symbol
_atom_site_symmetry_multiplicity
_atom_site_Wyckoff_symbol
_atom_site_fract_x
_atom_site_fract_y
_atom_site_fract_z
_atom_site_B_iso_or_equiv
_atom_site_occupancy
_atom_site_attached_hydrogens
Mn1 Mn4+ 4 i 0.363(1) 0 0.1910(9) -.028 0.83(1) 0
Mn2 Mn4+ 4 i 0.8278(9) 0 0.358(1) -.0369 0.83(1) 0
O1 O2- 4 i 0.1510(8) 0 0.2061(7) 0.0116 1. 0
O2 O2- 4 i 0.7839(8) 0 0.1458(1) 0.0275 1. 0
O3 O2- 4 i 0.5405(6) 0 0.1692(6) -.0215 1. 0
O4 O2- 4 i 0.8279(7) 0 0.5412(9) -.0084 1. 0
#End of TTdata_75540-ICSD