
#(C) 2019 by FIZ Karlsruhe - Leibniz Institute for Information Infrastructure.  All rights reserved.
data_78737-ICSD
_database_code_ICSD 78737
_audit_creation_date 1997-05-13
_audit_update_record 2012-02-01
_chemical_name_systematic 'Titanium fluoride'
_chemical_formula_structural 'Ti F4'
_chemical_formula_sum 'F4 Ti1'
_chemical_name_structure_type TiF4
_exptl_crystal_density_diffrn 2.94
_publ_section_title
'Titantetrafluorid - Eine ueberraschend einfache Kolumnarstruktur'
loop_
_citation_id
_citation_journal_full
_citation_year
_citation_journal_volume
_citation_page_first
_citation_page_last
_citation_journal_id_ASTM
primary 'Zeitschrift fuer Anorganische und Allgemeine Chemie (1950) (DE)' 1995
621 1227 1231 ZAACAB
loop_
_publ_author_name
'Bialowons, H.'
'Mueller, M.'
'Mueller, B.G.'
_cell_length_a 22.8110(30)
_cell_length_b 3.848(1)
_cell_length_c 9.568(1)
_cell_angle_alpha 90.
_cell_angle_beta 90.
_cell_angle_gamma 90.
_cell_volume 839.85
_cell_formula_units_Z 12
_symmetry_space_group_name_H-M 'P n m a'
_symmetry_Int_Tables_number 62
_refine_ls_R_factor_all 0.039
loop_
_symmetry_equiv_pos_site_id
_symmetry_equiv_pos_as_xyz
1 'x+1/2, y, -z+1/2'
2 'x, -y+1/2, z'
3 '-x+1/2, y+1/2, z+1/2'
4 '-x, -y, -z'
5 '-x+1/2, -y, z+1/2'
6 '-x, y+1/2, -z'
7 'x+1/2, -y+1/2, -z+1/2'
8 'x, y, z'
loop_
_atom_type_symbol
_atom_type_oxidation_number
Ti4+ 4
F1- -1
loop_
_atom_site_label
_atom_site_type_symbol
_atom_site_symmetry_multiplicity
_atom_site_Wyckoff_symbol
_atom_site_fract_x
_atom_site_fract_y
_atom_site_fract_z
_atom_site_B_iso_or_equiv
_atom_site_occupancy
_atom_site_attached_hydrogens
Ti1 Ti4+ 4 c 0.23295(5) 0.25 0.6952(1) . 1. 0
Ti2 Ti4+ 4 c 0.59824(5) 0.25 0.0514(1) . 1. 0
Ti3 Ti4+ 4 c 0.07564(5) 0.25 0.8499(1) . 1. 0
F1 F1- 4 c 0.7745(2) 0.25 0.3063(4) . 1. 0
F2 F1- 4 c 0.4198(2) 0.25 0.3342(4) . 1. 0
F3 F1- 4 c 0.5269(2) 0.25 0.1096(4) . 1. 0
F4 F1- 4 c 0.0916(2) 0.25 0.0239(4) . 1. 0
F5 F1- 4 c 0.1600(2) 0.25 0.8071(4) . 1. 0
F6 F1- 4 c 0.3990(2) 0.25 0.9653(4) . 1. 0
F7 F1- 4 c 0.2721(2) 0.25 0.8494(4) . 1. 0
F8 F1- 4 c 0.6339(2) 0.25 0.2093(4) . 1. 0
F9 F1- 4 c 0.1752(1) 0.25 0.5435(4) . 1. 0
F10 F1- 4 c 0.2894(2) 0.25 0.5768(4) . 1. 0
F11 F1- 4 c 0.0004(2) 0.25 0.8603(5) . 1. 0
F12 F1- 4 c 0.5715(1) 0.25 0.8562(4) . 1. 0
loop_
_atom_site_aniso_label
_atom_site_aniso_type_symbol
_atom_site_aniso_U_11
_atom_site_aniso_U_22
_atom_site_aniso_U_33
_atom_site_aniso_U_12
_atom_site_aniso_U_13
_atom_site_aniso_U_23
Ti1 Ti4+ 0.0216(6) 0.0153(7) 0.0301(7) 0 -.0027(5) 0
Ti2 Ti4+ 0.0245(6) 0.0153(7) 0.0269(6) 0 0.0032(5) 0
Ti3 Ti4+ 0.0273(6) 0.0176(7) 0.0268(7) 0 0.0038(5) 0
F1 F1- 0.041(2) 0.016(2) 0.049(3) 0 -.006(2) 0
F2 F1- 0.049(2) 0.021(2) 0.048(3) 0 -.004(2) 0
F3 F1- 0.031(2) 0.042(3) 0.044(2) 0 0.012(2) 0
F4 F1- 0.057(3) 0.052(3) 0.027(2) 0 0.002(2) 0
F5 F1- 0.027(2) 0.035(2) 0.033(2) 0 -.0006(15) 0
F6 F1- 0.039(2) 0.015(2) 0.044(2) 0 0.002(2) 0
F7 F1- 0.036(2) 0.041(3) 0.040(2) 0 -.014(2) 0
F8 F1- 0.0441(23) 0.047(3) 0.027(2) 0 -.003(2) 0
F9 F1- 0.024(2) 0.030(2) 0.029(2) 0 -.001(2) 0
F10 F1- 0.030(2) 0.050(3) 0.047(3) 0 0.010(2) 0
F11 F1- 0.031(2) 0.050(3) 0.049(3) 0 0.009(2) 0
F12 F1- 0.025(2) 0.032(2) 0.030(2) 0 0.0009(2) 0
#End of TTdata_78737-ICSD