
#(C) 2019 by FIZ Karlsruhe - Leibniz Institute for Information Infrastructure.  All rights reserved.
data_9038-ICSD
_database_code_ICSD 9038
_audit_creation_date 1986-09-24
_audit_update_record 2012-08-01
_chemical_name_systematic 'Titanium oxide (5/9)'
_chemical_formula_structural 'Ti5 O9'
_chemical_formula_sum 'O9 Ti5'
_chemical_name_structure_type Ti5O9
_exptl_crystal_density_diffrn 4.29
_publ_section_title

;
Crystal structure studies on the homologous series Tin O2n-1 Vn O2n-1 Tin-2
Cr2 O2n-1
;
loop_
_citation_id
_citation_journal_full
_citation_year
_citation_journal_volume
_citation_page_first
_citation_page_last
_citation_journal_id_ASTM
primary 'Arkiv foer Kemi' 1963 21 413 426 ARKEAD
loop_
_publ_author_name
'Andersson, S.'
'Jahnberg, L.'
_cell_length_a 5.6
_cell_length_b 7.12
_cell_length_c 8.87
_cell_angle_alpha 97.6
_cell_angle_beta 112.3
_cell_angle_gamma 108.5
_cell_volume 297.16
_cell_formula_units_Z 2
_symmetry_space_group_name_H-M 'P -1'
_symmetry_Int_Tables_number 2
loop_
_symmetry_equiv_pos_site_id
_symmetry_equiv_pos_as_xyz
1 '-x, -y, -z'
2 'x, y, z'
loop_
_atom_type_symbol
_atom_type_oxidation_number
Ti3+ 3.75
Ti3+ 3
Ti3+ 3.75
O2- -2
loop_
_atom_site_label
_atom_site_type_symbol
_atom_site_symmetry_multiplicity
_atom_site_Wyckoff_symbol
_atom_site_fract_x
_atom_site_fract_y
_atom_site_fract_z
_atom_site_B_iso_or_equiv
_atom_site_occupancy
_atom_site_attached_hydrogens
Ti1 Ti3+ 2 i 0.556 0.333 0.222 . 1. 0
Ti2 Ti3+ 2 i 0.556 0.833 0.222 . 1. 0
Ti3 Ti3+ 2 i 0.111 0.167 0.444 . 1. 0
Ti4 Ti3+ 2 i 0.111 0.667 0.444 . 1. 0
Ti5 Ti3+ 1 a 0 0 0 . 1. 0
Ti6 Ti3+ 1 c 0 0.5 0 . 1. 0
O1 O2- 2 i 0.658 0.834 0.018 . 1. 0
O2 O2- 2 i 0.17 0.798 0.068 . 1. 0
O3 O2- 2 i 0.386 0.538 0.154 . 1. 0
O4 O2- 2 i 0.898 0.5 0.204 . 1. 0
O5 O2- 2 i 0.213 0.167 0.24 . 1. 0
O6 O2- 2 i 0.726 0.13 0.29 . 1. 0
O7 O2- 2 i 0.941 0.871 0.376 . 1. 0
O8 O2- 2 i 0.454 0.834 0.426 . 1. 0
O9 O2- 2 i 0.719 0.538 0.487 . 1. 0
#End of TTdata_9038-ICSD