
#(C) 2019 by FIZ Karlsruhe - Leibniz Institute for Information Infrastructure.  All rights reserved.
data_9039-ICSD
_database_code_ICSD 9039
_audit_creation_date 1986-09-24
_audit_update_record 2004-04-01
_chemical_name_systematic 'Titanium oxide (6/11) - LT'
_chemical_formula_structural 'Ti6 O11'
_chemical_formula_sum 'O11 Ti6'
_exptl_crystal_density_diffrn 4.28
_publ_section_title

;
Crystal structure studies on the homologous series Tin O2n-1 Vn O2n-1 Tin-2
Cr2 O2n-1
;
loop_
_citation_id
_citation_journal_full
_citation_year
_citation_journal_volume
_citation_page_first
_citation_page_last
_citation_journal_id_ASTM
primary 'Arkiv foer Kemi' 1963 21 413 426 ARKEAD
loop_
_publ_author_name
'Andersson, S.'
'Jahnberg, L.'
_cell_length_a 5.56
_cell_length_b 7.14
_cell_length_c 24.04
_cell_angle_alpha 98.5
_cell_angle_beta 120.8
_cell_angle_gamma 108.5
_cell_volume 718.78
_cell_formula_units_Z 4
_symmetry_space_group_name_H-M 'P -1'
_symmetry_Int_Tables_number 2
loop_
_symmetry_equiv_pos_site_id
_symmetry_equiv_pos_as_xyz
1 '-x, -y, -z'
2 'x, y, z'
loop_
_atom_type_symbol
_atom_type_oxidation_number
Ti0+ 0
O0+ 0
loop_
_atom_site_label
_atom_site_type_symbol
_atom_site_symmetry_multiplicity
_atom_site_Wyckoff_symbol
_atom_site_fract_x
_atom_site_fract_y
_atom_site_fract_z
_atom_site_B_iso_or_equiv
_atom_site_occupancy
_atom_site_attached_hydrogens
Ti1 Ti0+ 2 i 0.318 0.182 0.045 . 1. 0
Ti2 Ti0+ 2 i 0.318 0.682 0.045 . 1. 0
Ti3 Ti0+ 2 i 0.955 0.045 0.136 . 1. 0
Ti4 Ti0+ 2 i 0.955 0.545 0.136 . 1. 0
Ti5 Ti0+ 2 i 0.591 0.409 0.227 . 1. 0
Ti6 Ti0+ 2 i 0.591 0.909 0.227 . 1. 0
Ti7 Ti0+ 2 i 0.409 0.091 0.273 . 1. 0
Ti8 Ti0+ 2 i 0.409 0.591 0.273 . 1. 0
Ti9 Ti0+ 2 i 0.045 0.455 0.364 . 1. 0
Ti10 Ti0+ 2 i 0.045 0.955 0.364 . 1. 0
Ti11 Ti0+ 2 i 0.682 0.318 0.455 . 1. 0
Ti12 Ti0+ 2 i 0.682 0.818 0.455 . 1. 0
O1 O0+ 2 i 0.123 0.377 0.018 . 1. 0
O2 O0+ 2 i 0.654 0.346 0.038 . 1. 0
O3 O0+ 2 i 0.982 0.018 0.053 . 1. 0
O4 O0+ 2 i 0.513 0.987 0.073 . 1. 0
O5 O0+ 2 i 0.76 0.74 0.109 . 1. 0
O6 O0+ 2 i 0.29 0.71 0.129 . 1. 0
O7 O0+ 2 i 0.619 0.381 0.144 . 1. 0
O8 O0+ 2 i 0.149 0.351 0.164 . 1. 0
O9 O0+ 2 i 0.396 0.104 0.199 . 1. 0
O10 O0+ 2 i 0.927 0.073 0.22 . 1. 0
O11 O0+ 2 i 0.214 0.786 0.245 . 1. 0
O12 O0+ 2 i 0.786 0.714 0.255 . 1. 0
O13 O0+ 2 i 0.073 0.427 0.28 . 1. 0
O14 O0+ 2 i 0.604 0.396 0.301 . 1. 0
O15 O0+ 2 i 0.851 0.149 0.336 . 1. 0
O16 O0+ 2 i 0.381 0.119 0.356 . 1. 0
O17 O0+ 2 i 0.71 0.79 0.371 . 1. 0
O18 O0+ 2 i 0.24 0.76 0.391 . 1. 0
O19 O0+ 2 i 0.487 0.513 0.427 . 1. 0
O20 O0+ 2 i 0.018 0.482 0.447 . 1. 0
O21 O0+ 2 i 0.346 0.154 0.462 . 1. 0
O22 O0+ 2 i 0.877 0.123 0.482 . 1. 0
#End of TTdata_9039-ICSD