
#(C) 2019 by FIZ Karlsruhe - Leibniz Institute for Information Infrastructure.  All rights reserved.
data_9090-ICSD
_database_code_ICSD 9090
_audit_creation_date 1986-09-25
_audit_update_record 2012-08-01
_chemical_name_systematic 'Manganese(III) oxide - alpha'
_chemical_formula_structural 'Mn2 O3'
_chemical_formula_sum 'Mn2 O3'
_chemical_name_structure_type Mn2O3-alpha
_chemical_name_mineral 'Bixbyite O'
_exptl_crystal_density_diffrn 5.03
_publ_section_title

;
Structures of alpha-(Mn2 O3), (Mn.983 Fe.017)2 O3, (Mn.37 Fe.63)2 O3 and
Relation to Magnetic Ordering
;
loop_
_citation_id
_citation_journal_full
_citation_year
_citation_journal_volume
_citation_page_first
_citation_page_last
_citation_journal_id_ASTM
primary

;
Acta Crystallographica, Section B: Structural Crystallography and Crystal
Chemistry
; 1971 27 821 828 ACBCAR
loop_
_publ_author_name
'Geller, S.'
_cell_length_a 9.4157(3)
_cell_length_b 9.4233(3)
_cell_length_c 9.4047(3)
_cell_angle_alpha 90.
_cell_angle_beta 90.
_cell_angle_gamma 90.
_cell_volume 834.45
_cell_formula_units_Z 16
_symmetry_space_group_name_H-M 'P c a b'
_symmetry_Int_Tables_number 61
_refine_ls_R_factor_all 0.034
loop_
_symmetry_equiv_pos_site_id
_symmetry_equiv_pos_as_xyz
1 'x+1/2, -y+1/2, z'
2 'x, y+1/2, -z+1/2'
3 '-x+1/2, y, z+1/2'
4 '-x, -y, -z'
5 '-x+1/2, y+1/2, -z'
6 '-x, -y+1/2, z+1/2'
7 'x+1/2, -y, -z+1/2'
8 'x, y, z'
loop_
_atom_type_symbol
_atom_type_oxidation_number
Mn3+ 3
O2- -2
loop_
_atom_site_label
_atom_site_type_symbol
_atom_site_symmetry_multiplicity
_atom_site_Wyckoff_symbol
_atom_site_fract_x
_atom_site_fract_y
_atom_site_fract_z
_atom_site_B_iso_or_equiv
_atom_site_occupancy
_atom_site_attached_hydrogens
Mn1 Mn3+ 4 a 0 0 0 . 1. 0
Mn2 Mn3+ 4 b 0 0 0.5 . 1. 0
Mn3 Mn3+ 8 c 0.28479(10) 0.25253(5) -.00590(5) . 1. 0
Mn4 Mn3+ 8 c 0.00462(5) 0.28507(10) 0.24564(5) . 1. 0
Mn5 Mn3+ 8 c 0.25301(5) 0.00130(4) 0.28533(10) . 1. 0
O1 O2- 8 c 0.13299(32) -.08466(35) 0.15030(33) . 1. 0
O2 O2- 8 c 0.14435(33) 0.12989(34) -.08507(35) . 1. 0
O3 O2- 8 c -.08038(35) 0.14693(33) 0.12412(31) . 1. 0
O4 O2- 8 c -.37447(31) 0.41757(34) -.35569(31) . 1. 0
O5 O2- 8 c -.35081(32) -.37238(33) 0.41947(35) . 1. 0
O6 O2- 8 c 0.41306(34) -.35285(33) -.36751(33) . 1. 0
loop_
_atom_site_aniso_label
_atom_site_aniso_type_symbol
_atom_site_aniso_beta_11
_atom_site_aniso_beta_22
_atom_site_aniso_beta_33
_atom_site_aniso_beta_12
_atom_site_aniso_beta_13
_atom_site_aniso_beta_23
Mn1 Mn3+ 0.00096(12) 0.00098(12) 0.00090(12) 0.00004(3) 0.00022(2) 0.00004(1)
Mn2 Mn3+ 0.00127(12) 0.00127(12) 0.00100(12) 0.00012(7) 0.00012(7) 0.00009(7)
Mn3 Mn3+ 0.00134(11) 0.00156(10) 0.00206(10) -.00005(3) 0.00019(3) -.00060(6)
Mn4 Mn3+ 0.00196(10) 0.00145(11) 0.00137(10) -.00007(3) -.00066(6) 0.00002(3)
Mn5 Mn3+ 0.00161(10) 0.00240(11) 0.00109(10) -.00074(6) -.00004(3) 0.00000(3)
O1 O2- 0.00181(29) 0.00251(23) 0.0013(3) -.00047(24) -.00029(25) -.00054(23)
O2 O2- 0.00142(29) 0.00250(32) 0.00202(32) -.00020(26) -.00039(23) -.00049(23)
O3 O2- 0.00198(30) 0.00128(28) 0.00197(30) -.00001(22) -.00057(22) -.00033(24)
O4 O2- 0.00180(29) 0.00236(31) 0.00073(27) -.00083(23) -.00041(24) -.00019(22)
O5 O2- 0.00129(29) 0.00237(31) 0.00183(31) 0.00024(25) 0.00007(23) -.00099(23)
O6 O2- 0.00148(30) 0.00130(28) 0.00249(31) -.00007(22) -.00062(22) 0.00008(24)
#End of TTdata_9090-ICSD