
#(C) 2019 by FIZ Karlsruhe - Leibniz Institute for Information Infrastructure.  All rights reserved.
data_99593-ICSD
_database_code_ICSD 99593
_audit_creation_date 2005-04-01
_chemical_name_systematic
'Indium chromium titanium oxide (1/0.33/0.67/3.3) - subsystem 2'
_chemical_formula_structural 'In (Cr0.333 Ti0.667) O3.333'
_chemical_formula_sum 'Cr0.333 In1 O3.333 Ti0.667'
_exptl_crystal_density_diffrn 8.07
_publ_section_title
'Modulated structure of the composite crystal In Cr1-x Tix O3+x/2'
loop_
_citation_id
_citation_journal_full
_citation_year
_citation_journal_volume
_citation_page_first
_citation_page_last
_citation_journal_id_ASTM
primary 'Journal of Solid State Chemistry' 2004 177 2644 2648 JSSCBI
loop_
_publ_author_name
'Michiue, Y.'
'Onoda, M.'
'Brown, F.'
'Kimizuka, N.'
_cell_length_a 5.9269(2)
_cell_length_b 2.4984(9)
_cell_length_c 6.3583(2)
_cell_angle_alpha 90
_cell_angle_beta 108.0964(3)
_cell_angle_gamma 90
_cell_volume 89.5
_cell_formula_units_Z 2
_symmetry_space_group_name_H-M 'C 1 2/m 1'
_symmetry_Int_Tables_number 12
_refine_ls_R_factor_all 0.108
loop_
_symmetry_equiv_pos_site_id
_symmetry_equiv_pos_as_xyz
1 '-x, y, -z'
2 '-x, -y, -z'
3 'x, -y, z'
4 'x, y, z'
5 '-x+1/2, y+1/2, -z'
6 '-x+1/2, -y+1/2, -z'
7 'x+1/2, -y+1/2, z'
8 'x+1/2, y+1/2, z'
loop_
_atom_type_symbol
_atom_type_oxidation_number
O2- -2
In3+ 3
Cr3+ 3
Ti4+ 4
O2- -2
loop_
_atom_site_label
_atom_site_type_symbol
_atom_site_symmetry_multiplicity
_atom_site_Wyckoff_symbol
_atom_site_fract_x
_atom_site_fract_y
_atom_site_fract_z
_atom_site_B_iso_or_equiv
_atom_site_occupancy
_atom_site_attached_hydrogens
O2 O2- 4 f 0.25 0.25 0.5 1. 1. 0
#End of TTdata_99593-ICSD