
#(C) 2019 by FIZ Karlsruhe - Leibniz Institute for Information Infrastructure.  All rights reserved.
data_182581-ICSD
_database_code_ICSD 182581
_audit_creation_date 2012-02-01
_chemical_name_systematic 'Lithium titanium oxide (0.5/1/2) - configuration 3'
_chemical_formula_structural 'Li0.5 Ti O2'
_chemical_formula_sum 'Li0.5 O2 Ti1'
_chemical_name_structure_type Li.5TiO2(P1)
_exptl_crystal_density_diffrn 3.5
_publ_section_title

;
Role of lithium ordering in the Lix Ti O2 anatase to titanate phase transition
;
loop_
_citation_id
_citation_journal_full
_citation_year
_citation_journal_volume
_citation_page_first
_citation_page_last
_citation_journal_id_ASTM
primary 'Journal of Physical Chemistry Letters' 2011 2 1657 1661 JPCLCD
loop_
_publ_author_name
'Morgan, B.J.'
'Watson, G.W.'
_cell_length_a 8.1783
_cell_length_b 4.02927
_cell_length_c 9.59784
_cell_angle_alpha 90
_cell_angle_beta 90
_cell_angle_gamma 90
_cell_volume 316.27
_cell_formula_units_Z 8
_symmetry_space_group_name_H-M 'P 1'
_symmetry_Int_Tables_number 1
loop_
_symmetry_equiv_pos_site_id
_symmetry_equiv_pos_as_xyz
1 'x, y, z'
loop_
_atom_type_symbol
_atom_type_oxidation_number
Li1+ 1
Ti3+ 3.5
O2- -2
loop_
_atom_site_label
_atom_site_type_symbol
_atom_site_symmetry_multiplicity
_atom_site_Wyckoff_symbol
_atom_site_fract_x
_atom_site_fract_y
_atom_site_fract_z
_atom_site_B_iso_or_equiv
_atom_site_occupancy
_atom_site_attached_hydrogens
Li1 Li1+ 1 a 0.00212 1. 0.99186 1. 1. 0
Li2 Li1+ 1 a 0.24788 0.5 0.49186 1. 1. 0
Li3 Li1+ 1 a 0.99324 0.5 0.24621 1. 1. 0
Li4 Li1+ 1 a 0.25676 1. 0.74621 1. 1. 0
Ti1 Ti3+ 1 a 0.97828 0. 0.50784 1. 1. 0
Ti2 Ti3+ 1 a 0.50353 1. 0.49261 1. 1. 0
Ti3 Ti3+ 1 a 0.27172 0.5 0.00784 1. 1. 0
Ti4 Ti3+ 1 a 0.74647 0.5 0.99261 1. 1. 0
Ti5 Ti3+ 1 a 0.00407 0.5 0.75516 1. 1. 0
Ti6 Ti3+ 1 a 0.51466 0.5 0.74527 1. 1. 0
Ti7 Ti3+ 1 a 0.24594 0. 0.25516 1. 1. 0
Ti8 Ti3+ 1 a 0.73534 1. 0.24527 1. 1. 0
O1 O2- 1 a 0.99943 1. 0.28283 1. 1. 0
O2 O2- 1 a 0.483 0. 0.28631 1. 1. 0
O3 O2- 1 a 0.25057 0.5 0.78283 1. 1. 0
O4 O2- 1 a 0.767 0.5 0.78631 1. 1. 0
O5 O2- 1 a 0.01549 0.5 0.54869 1. 1. 0
O6 O2- 1 a 0.48464 0.5 0.52162 1. 1. 0
O7 O2- 1 a 0.23451 0. 0.04869 1. 1. 0
O8 O2- 1 a 0.76536 0. 0.02161 1. 1. 0
O9 O2- 1 a 0.24656 0 0.46966 1. 1. 0
O10 O2- 1 a 0.73774 0. 0.46453 1. 1. 0
O11 O2- 1 a 0.00344 0.5 0.96965 1. 1. 0
O12 O2- 1 a 0.51226 0.5 0.96454 1. 1. 0
O13 O2- 1 a 0.23234 0.5 0.23323 1. 1. 0
O14 O2- 1 a 0.75936 0.5 0.20418 1. 1. 0
O15 O2- 1 a 0.01766 1. 0.73323 1. 1. 0
O16 O2- 1 a 0.49064 1. 0.70418 1. 1. 0
#End of TTdata_182581-ICSD