
#(C) 2019 by FIZ Karlsruhe - Leibniz Institute for Information Infrastructure.  All rights reserved.
data_171866-ICSD
_database_code_ICSD 171866
_audit_creation_date 2006-10-01
_chemical_name_systematic 'Manganese(IV) oxide'
_chemical_formula_structural 'Mn O2'
_chemical_formula_sum 'Mn1 O2'
_chemical_name_structure_type VO2
_chemical_name_mineral Ramsdellite
_exptl_crystal_density_diffrn 4.81
_publ_section_title

;
Neutron and synchrotron X-ray diffraction study of the structures and
dehydration behaviors of ramsdellite and "groutellite"
;
loop_
_citation_id
_citation_journal_full
_citation_year
_citation_journal_volume
_citation_page_first
_citation_page_last
_citation_journal_id_ASTM
primary 'American Mineralogist' 2004 89 969 975 AMMIAY
loop_
_publ_author_name
'Post, J.E.'
'Heaney, P.J.'
_cell_length_a 9.2734(7)
_cell_length_b 2.8638(2)
_cell_length_c 4.5219(3)
_cell_angle_alpha 90
_cell_angle_beta 90
_cell_angle_gamma 90
_cell_volume 120.09
_cell_formula_units_Z 4
_symmetry_space_group_name_H-M 'P n m a'
_symmetry_Int_Tables_number 62
_refine_ls_R_factor_all 0.044
loop_
_symmetry_equiv_pos_site_id
_symmetry_equiv_pos_as_xyz
1 'x+1/2, y, -z+1/2'
2 'x, -y+1/2, z'
3 '-x+1/2, y+1/2, z+1/2'
4 '-x, -y, -z'
5 '-x+1/2, -y, z+1/2'
6 '-x, y+1/2, -z'
7 'x+1/2, -y+1/2, -z+1/2'
8 'x, y, z'
loop_
_atom_type_symbol
_atom_type_oxidation_number
Mn4+ 4
O2- -2
loop_
_atom_site_label
_atom_site_type_symbol
_atom_site_symmetry_multiplicity
_atom_site_Wyckoff_symbol
_atom_site_fract_x
_atom_site_fract_y
_atom_site_fract_z
_atom_site_B_iso_or_equiv
_atom_site_occupancy
_atom_site_attached_hydrogens
Mn1 Mn4+ 4 c 0.1332(5) 0.25 0.0258(7) 0.0021(5) 1. 0
O1 O2- 4 c 0.9655(5) 0.25 0.7838(4) 0.0041(5) 1. 0
O2 O2- 4 c 0.2796(5) 0.25 0.3201(5) 0.0034(4) 1. 0
#End of TTdata_171866-ICSD