
#(C) 2019 by FIZ Karlsruhe - Leibniz Institute for Information Infrastructure.  All rights reserved.
data_10150-ICSD
_database_code_ICSD 10150
_audit_creation_date 1980-01-01
_audit_update_record 2004-04-01
_chemical_name_systematic 'Dititanium(III) dititanium oxide'
_chemical_formula_structural 'Ti4 O7'
_chemical_formula_sum 'O7 Ti4'
_chemical_name_structure_type V4O7
_exptl_crystal_density_diffrn 4.32
_cell_measurement_temperature 100.
_publ_section_title

;
Structural aspects of the metal-insulator transition in (Ti0.9975 V0.0025)4 O7
;
loop_
_citation_id
_citation_journal_full
_citation_year
_citation_journal_volume
_citation_page_first
_citation_page_last
_citation_journal_id_ASTM
primary 'Journal of Solid State Chemistry' 1979 29 47 62 JSSCBI
loop_
_publ_author_name
'Hodeau, J.L.'
'Marezio, M.'
_cell_length_a 5.6235(3)
_cell_length_b 7.1984(4)
_cell_length_c 12.4018(5)
_cell_angle_alpha 95.056(2)
_cell_angle_beta 95.550(5)
_cell_angle_gamma 109.676(5)
_cell_volume 466.58
_cell_formula_units_Z 4
_symmetry_space_group_name_H-M 'A -1'
_symmetry_Int_Tables_number 2
_refine_ls_R_factor_all 0.022
loop_
_symmetry_equiv_pos_site_id
_symmetry_equiv_pos_as_xyz
1 '-x, -y, -z'
2 'x, y, z'
3 '-x, -y+1/2, -z+1/2'
4 'x, y+1/2, z+1/2'
loop_
_atom_type_symbol
_atom_type_oxidation_number
Ti3+ 3.5
O2- -2
loop_
_atom_site_label
_atom_site_type_symbol
_atom_site_symmetry_multiplicity
_atom_site_Wyckoff_symbol
_atom_site_fract_x
_atom_site_fract_y
_atom_site_fract_z
_atom_site_B_iso_or_equiv
_atom_site_occupancy
_atom_site_attached_hydrogens
Ti1 Ti3+ 4 i 0.23627(6) 0.16307(5) 0.06822(3) . 1. 0
Ti2 Ti3+ 4 i 0.21306(6) 0.67121(5) 0.06565(3) . 1. 0
Ti3 Ti3+ 4 i 0.66984(6) 0.43872(5) 0.19383(3) . 1. 0
Ti4 Ti3+ 4 i 0.70556(6) 0.94939(5) 0.20431(3) . 1. 0
O1 O2- 4 i 0.1079(3) 0.8615(2) 0.0168(1) . 1. 0
O2 O2- 4 i 0.5799(3) 0.7970(2) 0.0620(1) . 1. 0
O3 O2- 4 i 0.8570(3) 0.4966(2) 0.0744(1) . 1. 0
O4 O2- 4 i 0.3160(3) 0.4448(2) 0.1419(1) . 1. 0
O5 O2- 4 i 0.5278(3) 0.1364(2) 0.1688(1) . 1. 0
O6 O2- 4 i 0.0373(3) 0.0709(2) 0.1977(1) . 1. 0
O7 O2- 4 i 0.2846(3) 0.7796(2) 0.2226(1) . 1. 0
loop_
_atom_site_aniso_label
_atom_site_aniso_type_symbol
_atom_site_aniso_beta_11
_atom_site_aniso_beta_22
_atom_site_aniso_beta_33
_atom_site_aniso_beta_12
_atom_site_aniso_beta_13
_atom_site_aniso_beta_23
Ti1 Ti3+ 0.00267(9) 0.00127(6) 0.00037(2) 0.00069(6) 0.00014(3) 0.00004(2)
Ti2 Ti3+ 0.00227(9) 0.00136(6) 0.00043(2) 0.00049(6) 0.00004(3) 0.00009(2)
Ti3 Ti3+ 0.00231(9) 0.00135(6) 0.00041(2) 0.00056(6) 0.00025(3) 0.00012(2)
Ti4 Ti3+ 0.00214(9) 0.00137(6) 0.00042(2) 0.00053(6) 0.00014(3) 0.00009(2)
O1 O2- 0.0041(4) 0.0018(2) 0.00068(7) 0.0012(2) 0.0000(1) 0.0000(1)
O2 O2- 0.0030(4) 0.0021(2) 0.00056(7) 0.0006(2) 0.0003(1) 0.0000(1)
O3 O2- 0.0029(4) 0.0019(2) 0.00046(7) 0.0005(2) 0.0004(1) 0.0000(1)
O4 O2- 0.0038(4) 0.0018(2) 0.00056(7) 0.0012(2) 0.0001(1) 0.0000(1)
O5 O2- 0.0034(4) 0.0016(2) 0.00058(7) 0.0008(2) 0.0003(1) 0.0001(1)
O6 O2- 0.0033(4) 0.0022(2) 0.00054(7) 0.0008(2) 0.0002(1) 0.0002(1)
O7 O2- 0.0033(4) 0.0016(2) 0.00065(7) 0.0008(2) 0.0003(1) 0.0001(1)
#End of TTdata_10150-ICSD