
#(C) 2019 by FIZ Karlsruhe - Leibniz Institute for Information Infrastructure.  All rights reserved.
data_12167-ICSD
_database_code_ICSD 12167
_audit_creation_date 1980-01-01
_chemical_name_systematic 'Manganese fluoride'
_chemical_formula_structural 'Mn F2'
_chemical_formula_sum 'F2 Mn1'
_exptl_crystal_density_diffrn 4.48
_cell_measurement_temperature 473.
_cell_measurement_pressure 3500000.
_publ_section_title 'Polymorphism in Mn F2 (Rutil Type) at high pressures'
loop_
_citation_id
_citation_journal_full
_citation_year
_citation_journal_volume
_citation_page_first
_citation_page_last
_citation_journal_id_ASTM
primary 'Journal of Geophysical Research' 1979 84 1113 1115 JGREA2
loop_
_publ_author_name
'Yagi, T.'
'Jamieson, J.C.'
'Moore, P.B.'
_cell_length_a 5.122(2)
_cell_length_b 5.122(2)
_cell_length_c 5.256(3)
_cell_angle_alpha 90.
_cell_angle_beta 90.
_cell_angle_gamma 90.
_cell_volume 137.89
_cell_formula_units_Z 4
_symmetry_space_group_name_H-M 'P -4 2 m'
_symmetry_Int_Tables_number 111
loop_
_symmetry_equiv_pos_site_id
_symmetry_equiv_pos_as_xyz
1 '-y, -x, z'
2 'y, x, z'
3 'y, -x, -z'
4 '-y, x, -z'
5 'x, -y, -z'
6 '-x, y, -z'
7 '-x, -y, z'
8 'x, y, z'
loop_
_atom_type_symbol
_atom_type_oxidation_number
Mn2+ 2
F1- -1
loop_
_atom_site_label
_atom_site_type_symbol
_atom_site_symmetry_multiplicity
_atom_site_Wyckoff_symbol
_atom_site_fract_x
_atom_site_fract_y
_atom_site_fract_z
_atom_site_B_iso_or_equiv
_atom_site_occupancy
_atom_site_attached_hydrogens
Mn1 Mn2+ 1 a 0 0 0 . 1. 0
Mn2 Mn2+ 1 d 0.5 0.5 0 . 1. 0
Mn3 Mn2+ 2 f 0.5 0 0.5 . 1. 0
F1 F1- 4 n 0.295 0.295 0.28 . 1. 0
F2 F1- 4 n 0.199 0.199 0.622 . 1. 0
#End of TTdata_12167-ICSD