
#(C) 2019 by FIZ Karlsruhe - Leibniz Institute for Information Infrastructure.  All rights reserved.
data_153165-ICSD
_database_code_ICSD 153165
_audit_creation_date 2006-10-01
_chemical_name_systematic '(Dilithium oxide) (manganese(IV) oxide) (0.12/1)'
_chemical_formula_structural '(Li2 O)0.12 (Mn O2)'
_chemical_formula_sum 'Li0.24 Mn1 O2.12'
_exptl_crystal_density_diffrn 4.22
_publ_section_title

;
Lithium ion insertion and extraction reactions with Hollandite-type manganese
dioxide free from any stabilizing cations in its tunnel cavity
;
loop_
_citation_id
_citation_journal_full
_citation_year
_citation_journal_volume
_citation_page_first
_citation_page_last
_citation_journal_id_ASTM
primary 'Journal of Solid State Chemistry' 2005 178 2741 2750 JSSCBI
loop_
_publ_author_name
'Kijima, N.'
'Takahashi, Y.'
'Akimoto, J.'
'Awaka, J.'
_cell_length_a 9.993(11)
_cell_length_b 9.993(11)
_cell_length_c 2.853(3)
_cell_angle_alpha 90.
_cell_angle_beta 90.
_cell_angle_gamma 90.
_cell_volume 284.9
_cell_formula_units_Z 8
_symmetry_space_group_name_H-M 'I 4/m'
_symmetry_Int_Tables_number 87
_refine_ls_R_factor_all 0.0131
loop_
_symmetry_equiv_pos_site_id
_symmetry_equiv_pos_as_xyz
1 '-y, x, -z'
2 'y, -x, -z'
3 'x, y, -z'
4 '-x, -y, -z'
5 'y, -x, z'
6 '-y, x, z'
7 '-x, -y, z'
8 'x, y, z'
9 '-y+1/2, x+1/2, -z+1/2'
10 'y+1/2, -x+1/2, -z+1/2'
11 'x+1/2, y+1/2, -z+1/2'
12 '-x+1/2, -y+1/2, -z+1/2'
13 'y+1/2, -x+1/2, z+1/2'
14 '-y+1/2, x+1/2, z+1/2'
15 '-x+1/2, -y+1/2, z+1/2'
16 'x+1/2, y+1/2, z+1/2'
loop_
_atom_type_symbol
_atom_type_oxidation_number
Mn4+ 4
O2- -2
Li1+ 1
loop_
_atom_site_label
_atom_site_type_symbol
_atom_site_symmetry_multiplicity
_atom_site_Wyckoff_symbol
_atom_site_fract_x
_atom_site_fract_y
_atom_site_fract_z
_atom_site_B_iso_or_equiv
_atom_site_occupancy
_atom_site_attached_hydrogens
Mn1 Mn4+ 8 h 0.34936(14) 0.1659(2) 0 0.0036(3) 1. 0
O1 O2- 8 h 0.1472(4) 0.1988(3) 0 0.0049(8) 1. 0
O2 O2- 8 h 0.5394(4) 0.1681(4) 0 0.0049(8) 1. 0
O3 O2- 2 b 0 0 0.5 0.012(3) 0.48 0
#End of TTdata_153165-ICSD