
#(C) 2019 by FIZ Karlsruhe - Leibniz Institute for Information Infrastructure.  All rights reserved.
data_156501-ICSD
_database_code_ICSD 156501
_audit_creation_date 2007-08-01
_chemical_name_systematic 'Lithium manganate(III) - HT'
_chemical_formula_structural 'Li (Mn O2)'
_chemical_formula_sum 'Li1 Mn1 O2'
_chemical_name_structure_type LiMnO2
_exptl_crystal_density_diffrn 4.24
_publ_section_title

;
In situ synchrotron diffraction study of high temperature prepared
orthorhombic Li Mn O2
;
loop_
_citation_id
_citation_journal_full
_citation_year
_citation_journal_volume
_citation_page_first
_citation_page_last
_citation_journal_id_ASTM
primary 'Solid State Ionics' 2007 178 253 257 SSIOD3
loop_
_publ_author_name
'Wei, Y.-J.'
'Ehrenberg, H.'
'Bramnik, N.N.'
'Nikolowski, K.'
'Baehtz, C.'
'Fuess, H.'
_cell_length_a 4.5725(1)
_cell_length_b 5.7419(2)
_cell_length_c 2.8037(1)
_cell_angle_alpha 90.
_cell_angle_beta 90.
_cell_angle_gamma 90.
_cell_volume 73.61
_cell_formula_units_Z 2
_symmetry_space_group_name_H-M 'P m n m Z'
_symmetry_Int_Tables_number 59
_refine_ls_R_factor_all 0.108
loop_
_symmetry_equiv_pos_site_id
_symmetry_equiv_pos_as_xyz
1 'x+1/2, -y, z+1/2'
2 '-x, -y, z+1/2'
3 'x+1/2, -y, -z'
4 '-x, -y, -z'
5 '-x+1/2, y, -z+1/2'
6 'x, y, -z+1/2'
7 '-x+1/2, y, z'
8 'x, y, z'
loop_
_atom_type_symbol
_atom_type_oxidation_number
Li1+ 1
Mn3+ 3
O2- -2
loop_
_atom_site_label
_atom_site_type_symbol
_atom_site_symmetry_multiplicity
_atom_site_Wyckoff_symbol
_atom_site_fract_x
_atom_site_fract_y
_atom_site_fract_z
_atom_site_B_iso_or_equiv
_atom_site_occupancy
_atom_site_attached_hydrogens
Li1 Li1+ 2 a 0.25 0.08838 0.25 1. 0.857 0
Li2 Li1+ 2 a 0.25 0.6205 0.25 1. 0.143 0
Mn1 Mn3+ 2 a 0.25 0.08838 0.25 0.5 0.143 0
Mn2 Mn3+ 2 a 0.25 0.6205 0.25 0.5 0.857 0
O1 O2- 2 b 0.75 0.14357 0.25 1. 1. 0
O2 O2- 2 b 0.75 0.62629 0.25 1. 1. 0
#End of TTdata_156501-ICSD