
#(C) 2019 by FIZ Karlsruhe - Leibniz Institute for Information Infrastructure.  All rights reserved.
data_162591-ICSD
_database_code_ICSD 162591
_audit_creation_date 2009-08-01
_chemical_name_systematic 'Lithium manganese oxide (0.33/1/2)'
_chemical_formula_structural 'Li0.33 (Mn O2)'
_chemical_formula_sum 'Li0.33 Mn1 O2'
_exptl_crystal_density_diffrn 4.61
_publ_section_title

;
Characterizations on the structural and electronic properties of thermal
lithiated Li0.33 Mn O2
;
loop_
_citation_id
_citation_journal_full
_citation_year
_citation_journal_volume
_citation_page_first
_citation_page_last
_citation_journal_id_ASTM
primary 'Journal of Alloys and Compounds' 2009 470 273 277 JALCEU
loop_
_publ_author_name
'Wei, Y.J.'
'Ehrenberg, H.'
'Kim, K.B.'
'Park, C.W.'
'Huang, Z.F.'
'Baehtz, C.'
_cell_length_a 13.798(5)
_cell_length_b 2.839(6)
_cell_length_c 4.925(2)
_cell_angle_alpha 90.
_cell_angle_beta 88.3
_cell_angle_gamma 90.
_cell_volume 192.84
_cell_formula_units_Z 6
_symmetry_space_group_name_H-M 'C 1 2/m 1'
_symmetry_Int_Tables_number 12
_refine_ls_R_factor_all 0.0138
loop_
_symmetry_equiv_pos_site_id
_symmetry_equiv_pos_as_xyz
1 '-x, y, -z'
2 '-x, -y, -z'
3 'x, -y, z'
4 'x, y, z'
5 '-x+1/2, y+1/2, -z'
6 '-x+1/2, -y+1/2, -z'
7 'x+1/2, -y+1/2, z'
8 'x+1/2, y+1/2, z'
loop_
_atom_type_symbol
_atom_type_oxidation_number
Mn3+ 3.67
O2- -2
Li1+ 1
loop_
_atom_site_label
_atom_site_type_symbol
_atom_site_symmetry_multiplicity
_atom_site_Wyckoff_symbol
_atom_site_fract_x
_atom_site_fract_y
_atom_site_fract_z
_atom_site_B_iso_or_equiv
_atom_site_occupancy
_atom_site_attached_hydrogens
Mn1 Mn3+ 2 a 0 0 0 . 1. 0
Mn2 Mn3+ 4 i 0.342 0 0.477 . 1. 0
O1 O2- 4 i 0.058 0 0.339 . 1. 0
O2 O2- 4 i 0.412 0 0.183 . 1. 0
O3 O2- 4 i 0.239 0 0.77 . 1. 0
#End of TTdata_162591-ICSD