
#(C) 2019 by FIZ Karlsruhe - Leibniz Institute for Information Infrastructure.  All rights reserved.
data_163907-ICSD
_database_code_ICSD 163907
_audit_creation_date 2009-08-01
_chemical_name_systematic 'Lithium titanium oxide (0.53/1/2)'
_chemical_formula_structural 'Li0.53 Ti O2'
_chemical_formula_sum 'Li0.53 O2 Ti1'
_exptl_crystal_density_diffrn 4.13
_cell_measurement_temperature 293.
_publ_section_title 'Impact of nanosizing on lithiated rutile Ti O2'
loop_
_citation_id
_citation_journal_full
_citation_year
_citation_journal_volume
_citation_page_first
_citation_page_last
_citation_journal_id_ASTM
primary 'Chemistry of Materials' 2008 20 2949 2955 CMATEX
loop_
_publ_author_name
'Borghols, W.J.H.'
'Wagemaker, M.'
'Lafont, U.'
'Kelder, E.M.'
'Mulder, F.M.'
_cell_length_a 4.839
_cell_length_b 2.922
_cell_length_c 4.754
_cell_angle_alpha 90.
_cell_angle_beta 88.91
_cell_angle_gamma 90.
_cell_volume 67.21
_cell_formula_units_Z 2
_symmetry_space_group_name_H-M 'P 1 2/m 1'
_symmetry_Int_Tables_number 10
_refine_ls_R_factor_all 0.0098
loop_
_symmetry_equiv_pos_site_id
_symmetry_equiv_pos_as_xyz
1 '-x, y, -z'
2 '-x, -y, -z'
3 'x, -y, z'
4 'x, y, z'
loop_
_atom_type_symbol
_atom_type_oxidation_number
Ti3+ 3.47
O2- -2
Li1+ 1
loop_
_atom_site_label
_atom_site_type_symbol
_atom_site_symmetry_multiplicity
_atom_site_Wyckoff_symbol
_atom_site_fract_x
_atom_site_fract_y
_atom_site_fract_z
_atom_site_B_iso_or_equiv
_atom_site_occupancy
_atom_site_attached_hydrogens
Ti1 Ti3+ 1 a 0 0 0 . 1. 0
Ti2 Ti3+ 1 h 0.5 0.5 0.5 . 1. 0
O1 O2- 2 m 0.31 0 0.275 . 1. 0
O2 O2- 2 n 0.807 0.5 0.185 . 1. 0
Li1 Li1+ 1 e 0.5 0.5 0 . 0.53 0
Li2 Li1+ 1 f 0 0.5 0.5 . 0.53 0
#End of TTdata_163907-ICSD