
#(C) 2019 by FIZ Karlsruhe - Leibniz Institute for Information Infrastructure.  All rights reserved.
data_171867-ICSD
_database_code_ICSD 171867
_audit_creation_date 2006-10-01
_audit_update_record 2008-02-01
_chemical_name_systematic 'Manganese oxide hydroxide (1/1.5/0.5)'
_chemical_formula_structural 'Mn O1.5 (O H)0.5'
_chemical_formula_sum 'H0.5 Mn1 O2'
_chemical_name_structure_type Li.5TiO2
_chemical_name_mineral Groutellite
_exptl_crystal_density_diffrn 4.53
_publ_section_title

;
Neutron and synchrotron X-ray diffraction study of the structures and
dehydration behaviors of ramsdellite and "groutellite"
;
loop_
_citation_id
_citation_journal_full
_citation_year
_citation_journal_volume
_citation_page_first
_citation_page_last
_citation_journal_id_ASTM
primary 'American Mineralogist' 2004 89 969 975 AMMIAY
loop_
_publ_author_name
'Post, J.E.'
'Heaney, P.J.'
_cell_length_a 9.5155(3)
_cell_length_b 2.8644(1)
_cell_length_c 4.7061(2)
_cell_angle_alpha 90
_cell_angle_beta 90
_cell_angle_gamma 90
_cell_volume 128.27
_cell_formula_units_Z 4
_symmetry_space_group_name_H-M 'P n m a'
_symmetry_Int_Tables_number 62
_refine_ls_R_factor_all 0.048
loop_
_symmetry_equiv_pos_site_id
_symmetry_equiv_pos_as_xyz
1 'x+1/2, y, -z+1/2'
2 'x, -y+1/2, z'
3 '-x+1/2, y+1/2, z+1/2'
4 '-x, -y, -z'
5 '-x+1/2, -y, z+1/2'
6 '-x, y+1/2, -z'
7 'x+1/2, -y+1/2, -z+1/2'
8 'x, y, z'
loop_
_atom_type_symbol
_atom_type_oxidation_number
Mn3+ 3.5
O2- -2
H1+ 1
loop_
_atom_site_label
_atom_site_type_symbol
_atom_site_symmetry_multiplicity
_atom_site_Wyckoff_symbol
_atom_site_fract_x
_atom_site_fract_y
_atom_site_fract_z
_atom_site_B_iso_or_equiv
_atom_site_occupancy
_atom_site_attached_hydrogens
Mn1 Mn3+ 4 c 0.1416(2) 0.25 0.0407(3) 0.0393(4) 1. 0
O1 O2- 4 c 0.9577(6) 0.25 0.7819(9) 0.046(1) 1. 0
O2 O2- 4 c 0.2791(6) 0.25 0.342(1) 0.046(1) 1. 0
#End of TTdata_171867-ICSD