
#(C) 2019 by FIZ Karlsruhe - Leibniz Institute for Information Infrastructure.  All rights reserved.
data_173932-ICSD
_database_code_ICSD 173932
_audit_creation_date 2010-02-01
_audit_update_record 2012-02-01
_chemical_name_systematic 'Oxygen - alpha'
_chemical_formula_structural O2
_chemical_formula_sum O2
_chemical_name_structure_type O2(mS4)
_exptl_crystal_density_diffrn 1.53
_cell_measurement_temperature 6.
_publ_section_title 'Neutron-diffraction study of alpha- and beta-oxygen'
loop_
_citation_id
_citation_journal_full
_citation_year
_citation_journal_volume
_citation_page_first
_citation_page_last
_citation_journal_id_ASTM
primary 'Physical Review B: Condensed Matter and Materials Physics' 1984 29 1387
1393 PRBMDO
loop_
_publ_author_name
'Meier, R.J.'
'Helmholdt, R.B.'
_cell_length_a 5.389
_cell_length_b 3.433
_cell_length_c 5.071
_cell_angle_alpha 90.
_cell_angle_beta 132.27
_cell_angle_gamma 90.
_cell_volume 69.42
_cell_formula_units_Z 2
_symmetry_space_group_name_H-M 'C 1 2/m 1'
_symmetry_Int_Tables_number 12
_refine_ls_R_factor_all 0.114
loop_
_symmetry_equiv_pos_site_id
_symmetry_equiv_pos_as_xyz
1 '-x, y, -z'
2 '-x, -y, -z'
3 'x, -y, z'
4 'x, y, z'
5 '-x+1/2, y+1/2, -z'
6 '-x+1/2, -y+1/2, -z'
7 'x+1/2, -y+1/2, z'
8 'x+1/2, y+1/2, z'
loop_
_atom_type_symbol
_atom_type_oxidation_number
O0+ 0
loop_
_atom_site_label
_atom_site_type_symbol
_atom_site_symmetry_multiplicity
_atom_site_Wyckoff_symbol
_atom_site_fract_x
_atom_site_fract_y
_atom_site_fract_z
_atom_site_B_iso_or_equiv
_atom_site_occupancy
_atom_site_attached_hydrogens
O1 O0+ 4 i 0.105 0 0.171 1.05 1. 0
#End of TTdata_173932-ICSD