
#(C) 2019 by FIZ Karlsruhe - Leibniz Institute for Information Infrastructure.  All rights reserved.
data_185707-ICSD
_database_code_ICSD 185707
_audit_creation_date 2013-02-01
_audit_update_record 2016-02-01
_chemical_name_systematic 'Titanium oxide (1.67/3)'
_chemical_formula_structural 'Ti1.67 O3'
_chemical_formula_sum 'O3 Ti1.67'
_chemical_name_mineral Panguite
_exptl_crystal_density_diffrn 3.62
_publ_section_title

;
Panguite, (Ti4+,Sc,Al,Mg,Zr,Ca)1.8O3, a new ultra-refractory titania mineral
from the Allende meteorite: Synchrotron micro-diffraction and EBSD
;
loop_
_citation_id
_citation_journal_full
_citation_year
_citation_journal_volume
_citation_page_first
_citation_page_last
_citation_journal_id_ASTM
primary 'American Mineralogist' 2012 97 1219 1225 AMMIAY
loop_
_publ_author_name
'Ma Chi'
'Tschauner, O.'
'Beckett, J.R.'
'Rossman, G.R.'
'Liu Wenjun'
_cell_length_a 9.781(1)
_cell_length_b 9.778(2)
_cell_length_c 9.815(1)
_cell_angle_alpha 90.
_cell_angle_beta 90.
_cell_angle_gamma 90.
_cell_volume 938.69
_cell_formula_units_Z 16
_symmetry_space_group_name_H-M 'P b c a'
_symmetry_Int_Tables_number 61
_refine_ls_R_factor_all 0.07
loop_
_symmetry_equiv_pos_site_id
_symmetry_equiv_pos_as_xyz
1 'x+1/2, y, -z+1/2'
2 'x, -y+1/2, z+1/2'
3 '-x+1/2, y+1/2, z'
4 '-x, -y, -z'
5 '-x+1/2, -y, z+1/2'
6 '-x, y+1/2, -z+1/2'
7 'x+1/2, -y+1/2, -z'
8 'x, y, z'
loop_
_atom_type_symbol
_atom_type_oxidation_number
Ti3+ 3.59
O2- -2
loop_
_atom_site_label
_atom_site_type_symbol
_atom_site_symmetry_multiplicity
_atom_site_Wyckoff_symbol
_atom_site_fract_x
_atom_site_fract_y
_atom_site_fract_z
_atom_site_B_iso_or_equiv
_atom_site_occupancy
_atom_site_attached_hydrogens
Ti1 Ti3+ 8 c 0.4791(3) 0.0353(1) 0.333(2) 0.0602(2) 0.86(1) 0
Ti2 Ti3+ 8 c 0.0080(3) 0.2474(8) 0.462(1) 0.0687(1) 0.81(1) 0
Ti3 Ti3+ 8 c 0.24626(6) 0.47104(5) 0.000023(2) 0.0669(4) 0.87(1) 0
Ti4 Ti3+ 8 c 0.246(1) 0.2533(7) 0.2477(6) 0.0568(5) 0.80(3) 0
O1 O2- 8 c 0.393(15) 0.15(12) 0.38(6) 0.2(1) 1. 0
O2 O2- 8 c 0.4249(4) 0.433(2) 0.198(2) 0.071(1) 1. 0
O3 O2- 8 c 0.1400(1) 0.3764(1) 0.3940(2) 0.0346(4) 1. 0
O4 O2- 8 c 0.0997(4) 0.35109(1) 0.1087(9) 0.042(2) 1. 0
O5 O2- 8 c 0.108(2) 0.1106(5) 0.353(3) 0.059(1) 1. 0
O6 O2- 8 c 0.351(9) 0.11(2) 0.1(1) 0.2(1) 1. 0
#End of TTdata_185707-ICSD