
#(C) 2019 by FIZ Karlsruhe - Leibniz Institute for Information Infrastructure.  All rights reserved.
data_195926-ICSD
_database_code_ICSD 195926
_audit_creation_date 2016-02-01
_chemical_name_systematic 'Dioxygen difluoride'
_chemical_formula_structural 'O2 F2'
_chemical_formula_sum 'F2 O2'
_exptl_crystal_density_diffrn 2.01
_cell_measurement_temperature 86.
_publ_section_title 'Structure investigations on oxygen fluorides'
loop_
_citation_id
_citation_journal_full
_citation_year
_citation_journal_volume
_citation_page_first
_citation_page_last
_citation_journal_id_ASTM
primary 'Dalton Transactions' 2015 44 19659 19662 DTARAF
loop_
_publ_author_name
'Marx, Rupert'
'Seppelt, Konrad'
_cell_length_a 7.626(8)
_cell_length_b 8.518(9)
_cell_length_c 7.457(8)
_cell_angle_alpha 90.
_cell_angle_beta 106.80(3)
_cell_angle_gamma 90.
_cell_volume 463.71
_cell_formula_units_Z 8
_symmetry_space_group_name_H-M 'P 1 21/c 1'
_symmetry_Int_Tables_number 14
_refine_ls_R_factor_all 0.0271
loop_
_symmetry_equiv_pos_site_id
_symmetry_equiv_pos_as_xyz
1 'x, -y+1/2, z+1/2'
2 '-x, -y, -z'
3 '-x, y+1/2, -z+1/2'
4 'x, y, z'
loop_
_atom_type_symbol
_atom_type_oxidation_number
O1+ 1
F1- -1
O1+ 1
loop_
_atom_site_label
_atom_site_type_symbol
_atom_site_symmetry_multiplicity
_atom_site_Wyckoff_symbol
_atom_site_fract_x
_atom_site_fract_y
_atom_site_fract_z
_atom_site_B_iso_or_equiv
_atom_site_occupancy
_atom_site_attached_hydrogens
O1 O1+ 4 e 0.5334(8) 0.3118(6) -0.0236(7) 0.0367(10) 0.402(3) 0
O2 O1+ 4 e 0.5707(5) 0.2642(4) -0.0044(5) 0.0328(6) 0.598(3) 0
O3 O1+ 4 e 0.5136(3) 0.1758(3) 0.0005(3) 0.0363(7) 0.402(3) 0
O4 O1+ 4 e 0.40911(19) 0.25158(18) -0.04687(17) 0.0340(5) 0.598(3) 0
F1 F1- 4 e 0.63656(10) 0.39125(9) 0.16649(9) 0.04195(19) 1 0
F2 F1- 4 e 0.3245(10) 0.1548(8) 0.0599(11) 0.0495(13) 0.402(3) 0
F3 F1- 4 e 0.3600(7) 0.1164(6) 0.0833(8) 0.0405(7) 0.598(3) 0
F4 F1- 4 e 0.06834(9) 0.67421(8) 0.45915(9) 0.03906(17) 1 0
F5 F1- 4 e 0.21017(9) 0.50095(9) 0.16017(9) 0.04238(18) 1 0
O5 O1+ 4 e -0.02998(10) 0.60045(10) 0.25479(11) 0.03696(19) 1 0
O6 O1+ 4 e 0.03647(10) 0.47706(9) 0.23957(11) 0.03459(18) 1 0
loop_
_atom_site_aniso_label
_atom_site_aniso_type_symbol
_atom_site_aniso_U_11
_atom_site_aniso_U_22
_atom_site_aniso_U_33
_atom_site_aniso_U_12
_atom_site_aniso_U_13
_atom_site_aniso_U_23
O1 O1+ 0.049(3) 0.037(2) 0.0241(11) -0.0057(14) 0.0116(14) 0.0010(14)
O2 O1+ 0.0295(12) 0.044(2) 0.0285(10) -0.0070(11) 0.0144(9) -0.0096(11)
O3 O1+ 0.0356(12) 0.0362(14) 0.0399(11) -0.0001(10) 0.0153(9) -0.0072(9)
O4 O1+ 0.0287(8) 0.0456(9) 0.0243(6) -0.0050(6) 0.0020(5) 0.0063(5)
F1 F1- 0.0432(4) 0.0496(4) 0.0335(3) -0.0165(3) 0.0118(3) -0.0101(3)
F2 F1- 0.039(2) 0.069(4) 0.044(3) -0.025(2) 0.0185(19) -0.017(2)
F3 F1- 0.0434(18) 0.0456(15) 0.0343(9) -0.0135(10) 0.0140(11) 0.0032(9)
F4 F1- 0.0447(4) 0.0373(4) 0.0375(3) -0.0101(3) 0.0156(3) -0.0103(3)
F5 F1- 0.0374(3) 0.0572(4) 0.0376(3) 0.0022(3) 0.0188(3) 0.0010(3)
O5 O1+ 0.0296(4) 0.0458(5) 0.0330(4) 0.0038(3) 0.0051(3) -0.0016(3)
O6 O1+ 0.0374(4) 0.0350(4) 0.0344(4) -0.0084(3) 0.0152(3) -0.0042(3)
#End of TTdata_195926-ICSD