
#(C) 2019 by FIZ Karlsruhe - Leibniz Institute for Information Infrastructure.  All rights reserved.
data_20228-ICSD
_database_code_ICSD 20228
_audit_creation_date 1986-09-25
_audit_update_record 2007-08-01
_chemical_name_systematic 'Manganese(IV) oxide - gamma'
_chemical_formula_structural 'Mn O2'
_chemical_formula_sum 'Mn1 O2'
_chemical_name_structure_type VO2
_chemical_name_mineral Ramsdellite
_exptl_crystal_density_diffrn 4.87
_publ_section_title 'The structure of the modifications of manganese oxide'
loop_
_citation_id
_citation_journal_full
_citation_year
_citation_journal_volume
_citation_page_first
_citation_page_last
_citation_journal_id_ASTM
primary 'Izvestiya Akademii Nauk SSSR, Seriya Fizicheskaya' 1951 15 179 186
IANFAY
loop_
_publ_author_name
'Kondrashev, Yu.D.'
'Zaslavskii, A.I.'
_cell_length_a 9.32(1)
_cell_length_b 4.46(1)
_cell_length_c 2.850(5)
_cell_angle_alpha 90.
_cell_angle_beta 90.
_cell_angle_gamma 90.
_cell_volume 118.47
_cell_formula_units_Z 4
_symmetry_space_group_name_H-M 'P n a m'
_symmetry_Int_Tables_number 62
loop_
_symmetry_equiv_pos_site_id
_symmetry_equiv_pos_as_xyz
1 'x+1/2, -y+1/2, z'
2 'x, y, -z+1/2'
3 '-x+1/2, y+1/2, z+1/2'
4 '-x, -y, -z'
5 '-x+1/2, y+1/2, -z'
6 '-x, -y, z+1/2'
7 'x+1/2, -y+1/2, -z+1/2'
8 'x, y, z'
loop_
_atom_type_symbol
_atom_type_oxidation_number
Mn4+ 4
O2- -2
loop_
_atom_site_label
_atom_site_type_symbol
_atom_site_symmetry_multiplicity
_atom_site_Wyckoff_symbol
_atom_site_fract_x
_atom_site_fract_y
_atom_site_fract_z
_atom_site_B_iso_or_equiv
_atom_site_occupancy
_atom_site_attached_hydrogens
Mn1 Mn4+ 4 c 0.140(5) 0.020(5) 0.250(5) . 1. 0
O1 O2- 4 c 0.035(5) 0.210(5) 0.75 . 1. 0
O2 O2- 4 c 0.285(5) 0.310(5) 0.25 . 1. 0
#End of TTdata_20228-ICSD