
#(C) 2019 by FIZ Karlsruhe - Leibniz Institute for Information Infrastructure.  All rights reserved.
data_202727-ICSD
_database_code_ICSD 202727
_audit_creation_date 1989-12-04
_audit_update_record 2007-08-01
_chemical_name_systematic 'Hexamanganese(IV) oxide trihydrate'
_chemical_formula_structural 'Mn6 O12 (H2 O)3'
_chemical_formula_sum 'H6 Mn6 O15'
_chemical_name_mineral Todorokite
_exptl_crystal_density_diffrn 3.62
_publ_section_title 'Rietveld refinement of the todorokite structure'
loop_
_citation_id
_citation_journal_full
_citation_year
_citation_journal_volume
_citation_page_first
_citation_page_last
_citation_journal_id_ASTM
primary 'American Mineralogist' 1988 73 861 869 AMMIAY
loop_
_publ_author_name
'Post, J.E.'
'Bish, D.L.'
_cell_length_a 9.789(6)
_cell_length_b 2.834(1)
_cell_length_c 9.551(4)
_cell_angle_alpha 90.
_cell_angle_beta 93.72(3)
_cell_angle_gamma 90.
_cell_volume 264.41
_cell_formula_units_Z 1
_symmetry_space_group_name_H-M 'P 1 2/m 1'
_symmetry_Int_Tables_number 10
_refine_ls_R_factor_all 0.124
loop_
_symmetry_equiv_pos_site_id
_symmetry_equiv_pos_as_xyz
1 '-x, y, -z'
2 '-x, -y, -z'
3 'x, -y, z'
4 'x, y, z'
loop_
_atom_type_symbol
_atom_type_oxidation_number
Mn4+ 4
O2- -2
H1+ 1
loop_
_atom_site_label
_atom_site_type_symbol
_atom_site_symmetry_multiplicity
_atom_site_Wyckoff_symbol
_atom_site_fract_x
_atom_site_fract_y
_atom_site_fract_z
_atom_site_B_iso_or_equiv
_atom_site_occupancy
_atom_site_attached_hydrogens
Mn1 Mn4+ 1 e 0.5 0.5 0 0.8 1. 0
Mn2 Mn4+ 2 m 0.764(1) 0 0.002(1) 0.8 1. 0
Mn3 Mn4+ 1 c 0 0 0.5 0.8 1. 0
Mn4 Mn4+ 2 n 0.990(1) 0.5 0.759(1) 0.8 1. 0
O1 O2- 2 n 0.180(2) 0.5 0.116(2) 1. 1. 0
O2 O2- 2 m 0.403(2) 0 0.069(2) 1. 1. 0
O3 O2- 2 n 0.663(2) 0.5 0.110(2) 1. 1. 0
O4 O2- 2 m 0.908(2) 0 0.150(2) 1. 1. 0
O5 O2- 2 n 0.903(2) 0.5 0.412(2) 1. 1. 0
O6 O2- 2 m 0.889(2) 0 0.666(2) 1. 1. 0
#End of TTdata_202727-ICSD