
#(C) 2019 by FIZ Karlsruhe - Leibniz Institute for Information Infrastructure.  All rights reserved.
data_20928-ICSD
_database_code_ICSD 20928
_audit_creation_date 1985-07-16
_audit_update_record 2006-04-01
_chemical_name_systematic 'Lithium iodate(V) - alpha'
_chemical_formula_structural 'Li (I O3)'
_chemical_formula_sum 'I1 Li1 O3'
_exptl_crystal_density_diffrn 4.49
_publ_section_title 'The thermal parameters of the atoms in Li I O3 - alpha'
loop_
_citation_id
_citation_journal_full
_citation_year
_citation_journal_volume
_citation_page_first
_citation_page_last
_citation_journal_id_ASTM
primary Kristallografiya 1976 21 391 391 KRISAJ
loop_
_publ_author_name
'Emiraliev, A.'
'Kocharov, A.G.'
'Yamzin, I.I.'
'Lyubimtsev, V.A.'
_cell_length_a 5.48
_cell_length_b 5.48
_cell_length_c 5.17
_cell_angle_alpha 90.
_cell_angle_beta 90.
_cell_angle_gamma 120.
_cell_volume 134.46
_cell_formula_units_Z 2
_symmetry_space_group_name_H-M 'P 63'
_symmetry_Int_Tables_number 173
_refine_ls_R_factor_all 0.07
loop_
_symmetry_equiv_pos_site_id
_symmetry_equiv_pos_as_xyz
1 'x-y, x, z+1/2'
2 'y, -x+y, z+1/2'
3 '-x, -y, z+1/2'
4 '-x+y, -x, z'
5 '-y, x-y, z'
6 'x, y, z'
loop_
_atom_type_symbol
_atom_type_oxidation_number
Li1+ 1
I5+ 5
O2- -2
loop_
_atom_site_label
_atom_site_type_symbol
_atom_site_symmetry_multiplicity
_atom_site_Wyckoff_symbol
_atom_site_fract_x
_atom_site_fract_y
_atom_site_fract_z
_atom_site_B_iso_or_equiv
_atom_site_occupancy
_atom_site_attached_hydrogens
Li1 Li1+ 2 b 0.3333 0.6667 0.9270(67) 1.27(43) 1. 0
#End of TTdata_20928-ICSD