
#(C) 2019 by FIZ Karlsruhe - Leibniz Institute for Information Infrastructure.  All rights reserved.
data_236254-ICSD
_database_code_ICSD 236254
_audit_creation_date 2013-08-01
_chemical_name_systematic 'Dimanganese trioxide - zeta phase, HP HT'
_chemical_formula_structural 'Mn2 O3'
_chemical_formula_sum 'Mn2 O3'
_exptl_crystal_density_diffrn 5.31
_publ_section_title 'Perovskite-like Mn2 O3: a path to new manganites'
loop_
_citation_id
_citation_journal_full
_citation_year
_citation_journal_volume
_citation_page_first
_citation_page_last
_citation_journal_id_ASTM
primary 'Angewandte Chemie, International Edition' 2013 52 1494 1498 ACIEF5
loop_
_publ_author_name
'Ovsyannikov, Sergey V.'
'Abakumov, Artem M.'
'Tsirlin, Alexander A.'
'Schnelle, Walter'
'Egoavil, Ricardo'
'Verbeeck, Jo'
'Van Tendeloo, Gustaaf'
'Glazyrin, Konstantin V.'
'Hanfland, Michael'
'Dubrovinsky, Leonid'
_cell_length_a 10.3043(2)
_cell_length_b 10.3043(2)
_cell_length_c 25.7688(5)
_cell_angle_alpha 90.
_cell_angle_beta 90.
_cell_angle_gamma 120.
_cell_volume 2369.53
_cell_formula_units_Z 48
_symmetry_space_group_name_H-M 'R -3 H'
_symmetry_Int_Tables_number 148
_refine_ls_R_factor_all 0.059
loop_
_symmetry_equiv_pos_site_id
_symmetry_equiv_pos_as_xyz
1 'x-y, x, -z'
2 'y, -x+y, -z'
3 '-x, -y, -z'
4 '-x+y, -x, z'
5 '-y, x-y, z'
6 'x, y, z'
7 'x-y+2/3, x+1/3, -z+1/3'
8 'y+2/3, -x+y+1/3, -z+1/3'
9 '-x+2/3, -y+1/3, -z+1/3'
10 '-x+y+2/3, -x+1/3, z+1/3'
11 '-y+2/3, x-y+1/3, z+1/3'
12 'x+2/3, y+1/3, z+1/3'
13 'x-y+1/3, x+2/3, -z+2/3'
14 'y+1/3, -x+y+2/3, -z+2/3'
15 '-x+1/3, -y+2/3, -z+2/3'
16 '-x+y+1/3, -x+2/3, z+2/3'
17 '-y+1/3, x-y+2/3, z+2/3'
18 'x+1/3, y+2/3, z+2/3'
loop_
_atom_type_symbol
_atom_type_oxidation_number
Mn3+ 3
O2- -2
loop_
_atom_site_label
_atom_site_type_symbol
_atom_site_symmetry_multiplicity
_atom_site_Wyckoff_symbol
_atom_site_fract_x
_atom_site_fract_y
_atom_site_fract_z
_atom_site_B_iso_or_equiv
_atom_site_occupancy
_atom_site_attached_hydrogens
Mn1 Mn3+ 18 f 0.6647(6) 0.8357(8) 0.0828(1) 0.0033(1) 1. 0
Mn2 Mn3+ 9 d 0.5 0 0.5 0.0033(1) 1. 0
Mn3 Mn3+ 9 e 0.5 0 0 0.0033(1) 1. 0
Mn4 Mn3+ 6 c 0 0 0.7623(1) 0.0033(1) 1. 0
Mn5 Mn3+ 3 b 0 0 0.5 0.0033(1) 1. 0
Mn6 Mn3+ 3 a 0 0 0 0.0033(1) 1. 0
Mn7 Mn3+ 18 f 0.8291(6) 0.1809(6) 0.0403(1) 0.0033(1) 1. 0
Mn8 Mn3+ 18 f 0.6807(4) 0.8372(7) 0.2065(1) 0.0033(1) 1. 0
Mn9 Mn3+ 6 c 0 0 0.3869(2) 0.0033(1) 1. 0
Mn10 Mn3+ 6 c 0 0 0.8855(2) 0.0033(1) 1. 0
O1 O2- 18 f 0.705(2) 0.735(2) 0.0223(4) 0.0033(1) 1. 0
O2 O2- 18 f 0.260(2) 0.219(1) 0.2301(4) 0.0033(1) 1. 0
O3 O2- 18 f 0.640(2) 0.934(2) 0.1380(4) 0.0033(1) 1. 0
O4 O2- 18 f 0.778(2) 0.817(2) 0.2781(4) 0.0033(1) 1. 0
O5 O2- 18 f 0.829(2) 0.323(2) -0.0190(4) 0.0033(1) 1. 0
O6 O2- 18 f 0.186(2) 0.680(2) 0.2341(5) 0.0033(1) 1. 0
O7 O2- 18 f 0.519(2) 0.342(2) 0.1723(4) 0.0033(1) 1. 0
O8 O2- 18 f 0.814(2) 0.326(2) 0.2622(5) 0.0033(1) 1. 0
#End of TTdata_236254-ICSD