
#(C) 2019 by FIZ Karlsruhe - Leibniz Institute for Information Infrastructure.  All rights reserved.
data_239307-ICSD
_database_code_ICSD 239307
_audit_creation_date 2016-08-01
_chemical_name_systematic 'Lithium manganese titanium oxide (1.87/2.25/2.25/9)'
_chemical_formula_structural 'Li1.87 Mn2.25 Ti2.25 O9'
_chemical_formula_sum 'Li1.87 Mn2.25 O9 Ti2.25'
_exptl_crystal_density_diffrn 3.92
_publ_section_title

;
Li Mn Ti O4 with the Na0.44 Mn O2 structure as a positive electrode for
lithium-ion batteries
;
loop_
_citation_id
_citation_journal_full
_citation_year
_citation_journal_volume
_citation_page_first
_citation_page_last
_citation_journal_id_ASTM
primary 'Journal of the Electrochemical Society' 2016 163 A396 A400 JESOAN
loop_
_publ_author_name
'Amigues, A.M.'
'Glass, H.F.J.'
'Dutton, S.E.'
_cell_length_a 9.074(5)
_cell_length_b 24.97(1)
_cell_length_c 2.899(2)
_cell_angle_alpha 90.
_cell_angle_beta 90.
_cell_angle_gamma 90.
_cell_volume 656.84
_cell_formula_units_Z 4
_symmetry_space_group_name_H-M 'P b a m'
_symmetry_Int_Tables_number 55
_refine_ls_R_factor_all 0.103
loop_
_symmetry_equiv_pos_site_id
_symmetry_equiv_pos_as_xyz
1 'x+1/2, -y+1/2, z'
2 '-x+1/2, y+1/2, z'
3 'x, y, -z'
4 '-x, -y, -z'
5 '-x+1/2, y+1/2, -z'
6 'x+1/2, -y+1/2, -z'
7 '-x, -y, z'
8 'x, y, z'
loop_
_atom_type_symbol
_atom_type_oxidation_number
Li1+ 1
Mn3+ 3.17
Ti4+ 4
Mn3+ 3.17
Ti4+ 4
Mn3+ 3.17
Ti4+ 4
Mn3+ 3.17
O2- -2
loop_
_atom_site_label
_atom_site_type_symbol
_atom_site_symmetry_multiplicity
_atom_site_Wyckoff_symbol
_atom_site_fract_x
_atom_site_fract_y
_atom_site_fract_z
_atom_site_B_iso_or_equiv
_atom_site_occupancy
_atom_site_attached_hydrogens
Li1 Li1+ 4 g 0.043(4) 0.232(6) 0 . 1. 0
Li2 Li1+ 4 h 0.187(4) 0.418(2) 0.5 . 0.25 0
Li3 Li1+ 4 g 0.128(2) 0.004(8) 0 1.9(4) 0.62 0
Mn1 Mn3+ 2 c 0 0.5 0 0.7(4) 0.1 0
Ti1 Ti4+ 2 c 0 0.5 0 0.7(4) 0.9 0
Mn2 Mn3+ 4 h 0.3131(14) 0.3126(5) 0.5 0. 0.1 0
Ti2 Ti4+ 4 h 0.3131(14) 0.3126(5) 0.5 0. 0.9 0
Mn3 Mn3+ 4 g -0.0214(14) 0.1011(5) 0 0. 0.1 0
Ti3 Ti4+ 4 g -0.0214(14) 0.1011(5) 0 0. 0.9 0
Mn4 Mn3+ 4 g -0.0230(13) 0.3118(5) 0 0.2(2) 1. 0
Mn5 Mn3+ 4 h 0.333(2) 0.0796(7) 0.5 1.0(2) 1. 0
O1 O2- 4 h 0.3544(9) 0.0041(4) 0.5 0.5(2) 1. 0
O2 O2- 4 g 0.1826(9) 0.0787(3) 0 0.9(2) 1. 0
O3 O2- 4 h 0.0162(9) 0.1555(4) 0.5 0.9(2) 1. 0
O4 O2- 4 h 0.3572(9) 0.1661(4) 0.5 1.2(2) 1. 0
O5 O2- 4 h 0.105(9) 0.2904(3) 0.5 0.6(2) 1. 0
O6 O2- 4 g 0.3624(12) 0.2638(4) 0 0.77(14) 1. 0
O7 O2- 4 g 0.282(9) 0.3656(3) 0 0.8(2) 1. 0
O8 O2- 4 g 0.4887(11) 0.0773(3) 0 1.1(2) 1. 0
O9 O2- 4 h 0.4337(8) 0.4456(4) 0.5 0.7(2) 1. 0
loop_
_atom_site_aniso_label
_atom_site_aniso_type_symbol
_atom_site_aniso_B_11
_atom_site_aniso_B_22
_atom_site_aniso_B_33
_atom_site_aniso_B_12
_atom_site_aniso_B_13
_atom_site_aniso_B_23
Li1 Li1+ -0.0063(14) 0.036(10) 0.24(12) 0. 0. 0.
Li2 Li1+ -0.006(5) -0.001(1) 0.8(4) 0. 0. 0.
Mn5 Mn3+ 0.020(3) 0.0024(4) -0.013(8) 0. 0. 0.
#End of TTdata_239307-ICSD