
#(C) 2019 by FIZ Karlsruhe - Leibniz Institute for Information Infrastructure.  All rights reserved.
data_26398-ICSD
_database_code_ICSD 26398
_audit_creation_date 1981-12-31
_audit_update_record 1999-11-30
_chemical_name_systematic 'Oxygen titanium fluoride (4/7/30)'
_chemical_formula_structural '(O2)2 (Ti7 F30)'
_chemical_formula_sum 'F30 O4 Ti7'
_exptl_crystal_density_diffrn 2.75
_cell_measurement_temperature 153.
_publ_section_title 'Zur Kenntnis von ((O2)2)2+ ((Ti7 F30)2-'
loop_
_citation_id
_citation_journal_full
_citation_year
_citation_journal_volume
_citation_page_first
_citation_page_last
_citation_journal_id_ASTM
primary 'Journal of Fluorine Chemistry' 1981 17 489 499 JFLCAR
loop_
_publ_author_name
'Mueller, B.G.'
_cell_length_a 10.192
_cell_length_b 10.192
_cell_length_c 6.5
_cell_angle_alpha 90.
_cell_angle_beta 90.
_cell_angle_gamma 120.
_cell_volume 584.74
_cell_formula_units_Z 1
_symmetry_space_group_name_H-M 'P -3'
_symmetry_Int_Tables_number 147
_refine_ls_R_factor_all 0.086
loop_
_symmetry_equiv_pos_site_id
_symmetry_equiv_pos_as_xyz
1 'x-y, x, -z'
2 'y, -x+y, -z'
3 '-x, -y, -z'
4 '-x+y, -x, z'
5 '-y, x-y, z'
6 'x, y, z'
loop_
_atom_type_symbol
_atom_type_oxidation_number
Ti4+ 4
O0+ 0.5
F1- -1
loop_
_atom_site_label
_atom_site_type_symbol
_atom_site_symmetry_multiplicity
_atom_site_Wyckoff_symbol
_atom_site_fract_x
_atom_site_fract_y
_atom_site_fract_z
_atom_site_B_iso_or_equiv
_atom_site_occupancy
_atom_site_attached_hydrogens
Ti1 Ti4+ 1 b 0 0 0.5 . 1. 0
Ti2 Ti4+ 6 g 0.2549(2) 0.3615(2) 0.1601(3) . 1. 0
O1 O0+ 6 g 0.3865(20) 0.7218(15) 0.6376(19) . 0.6137(51) 0
F1 F1- 6 g 0.1615(8) 0.6562(8) 0.9705(10) . 1. 0
F2 F1- 6 g 0.0283(7) 0.4108(8) 0.6981(10) . 1. 0
F3 F1- 6 g 0.2006(8) 0.4596(7) 0.3296(10) . 1. 0
F4 F1- 6 g 0.1254(7) 0.1664(7) 0.3347(9) . 1. 0
F5 F1- 6 g 0.0576(8) 0.2743(7) 0.0207(10) . 1. 0
loop_
_atom_site_aniso_label
_atom_site_aniso_type_symbol
_atom_site_aniso_U_11
_atom_site_aniso_U_22
_atom_site_aniso_U_33
_atom_site_aniso_U_12
_atom_site_aniso_U_13
_atom_site_aniso_U_23
Ti1 Ti4+ 0.0089(24) 0.0089(24) 0.0062(17) 0.0044(12) 0 0
Ti2 Ti4+ 0.0095(8) 0.0068(8) 0.0079(7) 0.0026(7) -.0012(6) -.0007(6)
O1 O0+ 0.0730(48) 0.0340(44) 0.0182(39) 0.0363(35) -.0043(41) -.0134(36)
F1 F1- 0.0227(28) 0.0288(30) 0.0254(28) 0.0170(24) -.0134(24) -.0091(24)
F2 F1- 0.0154(27) 0.0278(30) 0.0253(28) 0.0060(24) 0.0042(23) -.0041(25)
F3 F1- 0.0280(29) 0.0163(27) 0.0227(27) 0.0106(23) 0.0045(24) -.0049(23)
F4 F1- 0.0233(27) 0.0178(26) 0.0145(24) 0.0105(22) 0.0108(22) 0.0089(21)
F5 F1- 0.0261(29) 0.0137(26) 0.0244(27) 0.0100(23) 0.0094(24) -.0005(22)
#End of TTdata_26398-ICSD