
#(C) 2019 by FIZ Karlsruhe - Leibniz Institute for Information Infrastructure.  All rights reserved.
data_29246-ICSD
_database_code_ICSD 29246
_audit_creation_date 1980-01-01
_audit_update_record 2004-04-01
_chemical_name_systematic 'Titanium oxide (1/0.997)'
_chemical_formula_structural 'Ti O0.997'
_chemical_formula_sum 'O0.997 Ti1'
_exptl_crystal_density_diffrn 4.91
_publ_section_title 'Vacancy - strain coupling in ordered Ti O'
loop_
_citation_id
_citation_journal_full
_citation_year
_citation_journal_volume
_citation_page_first
_citation_page_last
_citation_journal_id_ASTM
primary

;
Acta Crystallographica, Section A: Crystal Physics, Diffraction, Theoretical
and General Crystallography
; 1978 34 556 561 ACACBN
loop_
_publ_author_name
'Terauchi, H.'
'Cohen, J.B.'
'Reed, T.B.'
_cell_length_a 9.340(5)
_cell_length_b 5.860(4)
_cell_length_c 4.141(1)
_cell_angle_alpha 90.
_cell_angle_beta 90.
_cell_angle_gamma 107.553(6)
_cell_volume 216.09
_cell_formula_units_Z 10
_symmetry_space_group_name_H-M 'B 1 1 2/m'
_symmetry_Int_Tables_number 12
_refine_ls_R_factor_all 0.104
loop_
_symmetry_equiv_pos_site_id
_symmetry_equiv_pos_as_xyz
1 '-x, -y, z'
2 '-x, -y, -z'
3 'x, y, -z'
4 'x, y, z'
5 '-x+1/2, -y, z+1/2'
6 '-x+1/2, -y, -z+1/2'
7 'x+1/2, y, -z+1/2'
8 'x+1/2, y, z+1/2'
loop_
_atom_type_symbol
_atom_type_oxidation_number
Ti2+ 2
O2- -2
loop_
_atom_site_label
_atom_site_type_symbol
_atom_site_symmetry_multiplicity
_atom_site_Wyckoff_symbol
_atom_site_fract_x
_atom_site_fract_y
_atom_site_fract_z
_atom_site_B_iso_or_equiv
_atom_site_occupancy
_atom_site_attached_hydrogens
Ti1 Ti2+ 2 a 0 0 0 2.756(20) 0.284(20) 0
Ti2 Ti2+ 2 d 0 0.5 0 1.12(1) 0.941(10) 0
Ti3 Ti2+ 4 i 0.3360(7) 0.1620(13) 0 0.925(10) 0.952(10) 0
Ti4 Ti2+ 4 i 0.3396(6) 0.6670(14) 0 0.852(8) 0.958(8) 0
O1 O2- 2 b 0 0 0.5 1.206(35) 0.462(35) 0
O2 O2- 2 c 0 0.5 0.5 1.906(11) 0.782(11) 0
O3 O2- 4 i 0.1765(24) 0.3244(47) 0 1.152(12) 0.945(12) 0
O4 O2- 4 i 0.1642(24) 0.8056(44) 0 1.214(10) 0.948(10) 0
#End of TTdata_29246-ICSD