
#(C) 2019 by FIZ Karlsruhe - Leibniz Institute for Information Infrastructure.  All rights reserved.
data_30659-ICSD
_database_code_ICSD 30659
_audit_creation_date 1986-09-26
_audit_update_record 2006-04-01
_chemical_name_systematic 'Hydrogen manganese(III) oxide'
_chemical_formula_structural 'H Mn O2'
_chemical_formula_sum 'H1 Mn1 O2'
_chemical_name_structure_type AlOOH(Diaspore)
_chemical_name_mineral Groutite
_exptl_crystal_density_diffrn 4.1
_publ_section_title 'The crystal structure of groutite, H Mn O2'
loop_
_citation_id
_citation_journal_full
_citation_year
_citation_journal_volume
_citation_page_first
_citation_page_last
_citation_journal_id_ASTM
primary 'Acta Crystallographica' 1949 2 104 106 ACCRA9
loop_
_publ_author_name
'Collin, R.L.'
'Lipscomb, W.N.'
_cell_length_a 4.58
_cell_length_b 10.76
_cell_length_c 2.89
_cell_angle_alpha 90.
_cell_angle_beta 90.
_cell_angle_gamma 90.
_cell_volume 142.42
_cell_formula_units_Z 4
_symmetry_space_group_name_H-M 'P b n m'
_symmetry_Int_Tables_number 62
loop_
_symmetry_equiv_pos_site_id
_symmetry_equiv_pos_as_xyz
1 '-x+1/2, y+1/2, z'
2 'x, y, -z+1/2'
3 'x+1/2, -y+1/2, z+1/2'
4 '-x, -y, -z'
5 'x+1/2, -y+1/2, -z'
6 '-x, -y, z+1/2'
7 '-x+1/2, y+1/2, -z+1/2'
8 'x, y, z'
loop_
_atom_type_symbol
_atom_type_oxidation_number
Mn3+ 3
O2- -2
H1+ 1
loop_
_atom_site_label
_atom_site_type_symbol
_atom_site_symmetry_multiplicity
_atom_site_Wyckoff_symbol
_atom_site_fract_x
_atom_site_fract_y
_atom_site_fract_z
_atom_site_B_iso_or_equiv
_atom_site_occupancy
_atom_site_attached_hydrogens
Mn1 Mn3+ 4 c -.036 0.14 0.25 . 1. 0
O1 O2- 4 c 0.27 -.2 0.25 . 1. 0
O2 O2- 4 c -.21 -.05 0.25 . 1. 0
#End of TTdata_30659-ICSD