
#(C) 2019 by FIZ Karlsruhe - Leibniz Institute for Information Infrastructure.  All rights reserved.
data_35124-ICSD
_database_code_ICSD 35124
_audit_creation_date 1982-12-31
_chemical_name_systematic 'Titanium oxide (9/17)'
_chemical_formula_structural 'Ti9 O17'
_chemical_formula_sum 'O17 Ti9'
_exptl_crystal_density_diffrn 4.27
_publ_section_title
'Structural chemistry of the Magneli phases Tin O(2n-1), 4<=n<=9'
loop_
_citation_id
_citation_journal_full
_citation_year
_citation_journal_volume
_citation_page_first
_citation_page_last
_citation_journal_id_ASTM
primary 'Journal of Solid State Chemistry' 1982 44 273 281 JSSCBI
loop_
_publ_author_name
'le Page, Y.'
'Strobel, P.'
_cell_length_a 5.524(1)
_cell_length_b 7.142(1)
_cell_length_c 50.03(1)
_cell_angle_alpha 66.41(1)
_cell_angle_beta 57.20(1)
_cell_angle_gamma 108.53(1)
_cell_volume 1094.73
_cell_formula_units_Z 4
_symmetry_space_group_name_H-M 'I -1'
_symmetry_Int_Tables_number 2
_refine_ls_R_factor_all 0.025
loop_
_symmetry_equiv_pos_site_id
_symmetry_equiv_pos_as_xyz
1 '-x, -y, -z'
2 'x, y, z'
3 '-x+1/2, -y+1/2, -z+1/2'
4 'x+1/2, y+1/2, z+1/2'
loop_
_atom_type_symbol
_atom_type_oxidation_number
Ti0+ 0
O0+ 0
loop_
_atom_site_label
_atom_site_type_symbol
_atom_site_symmetry_multiplicity
_atom_site_Wyckoff_symbol
_atom_site_fract_x
_atom_site_fract_y
_atom_site_fract_z
_atom_site_B_iso_or_equiv
_atom_site_occupancy
_atom_site_attached_hydrogens
Ti1 Ti0+ 2 a 0 0 0 0.55(1) 1. 0
Ti2 Ti0+ 4 i 0.01284(8) 0.01106(6) 0.057340(9) 0.508(1) 1. 0
Ti3 Ti0+ 4 i 0.03725(8) 0.02811(6) 0.113550(9) 0.477(1) 1. 0
Ti4 Ti0+ 4 i 0.06027(8) 0.05701(6) 0.170150(9) 0.421(1) 1. 0
Ti5 Ti0+ 4 i 0.09266(8) 0.04166(6) 0.229840(9) 0.405(1) 1. 0
Ti6 Ti0+ 2 f 0 0.5 0 0.52(1) 1. 0
Ti7 Ti0+ 4 i 0.02191(8) 0.51380(6) 0.057080(9) 0.521(1) 1. 0
Ti8 Ti0+ 4 i 0.03915(8) 0.52960(6) 0.114290(9) 0.508(1) 1. 0
Ti9 Ti0+ 4 i 0.05638(8) 0.54882(6) 0.171600(9) 0.418(1) 1. 0
Ti10 Ti0+ 4 i 0.09580(8) 0.54775(6) 0.228110(9) 0.404(1) 1. 0
O1 O0+ 4 i 0.9956(3) 0.69378(24) 0.01865(3) 0.47(1) 1. 0
O2 O0+ 4 i 0.9996(3) 0.70035(24) 0.07726(4) 0.47(1) 1. 0
O3 O0+ 4 i 0.0026(3) 0.70937(25) 0.13528(4) 0.51(1) 1. 0
O4 O0+ 4 i 0.9292(3) 0.67779(25) 0.20287(4) 0.51(1) 1. 0
O5 O0+ 4 i 0.0144(3) 0.31481(24) 0.03964(3) 0.46(1) 1. 0
O6 O0+ 4 i 0.0369(3) 0.33014(24) 0.09674(3) 0.46(1) 1. 0
O7 O0+ 4 i 0.0655(3) 0.34573(24) 0.15317(4) 0.48(1) 1. 0
O8 O0+ 4 i 0.0366(3) 0.31665(24) 0.21516(3) 0.43(1) 1. 0
O9 O0+ 4 i 0.6069(3) 0.80771(24) 0.00511(3) 0.49(1) 1. 0
O10 O0+ 4 i 0.6180(3) 0.81943(25) 0.06302(3) 0.49(1) 1. 0
O11 O0+ 4 i 0.6283(3) 0.83343(25) 0.12169(4) 0.53(1) 1. 0
O12 O0+ 4 i 0.6456(3) 0.84786(25) 0.17851(4) 0.51(1) 1. 0
O13 O0+ 4 i 0.6226(3) 0.84322(24) 0.23860(3) 0.47(1) 1. 0
O14 O0+ 4 i 0.4057(3) 0.20318(25) 0.05274(3) 0.50(1) 1. 0
O15 O0+ 4 i 0.4148(3) 0.20198(25) 0.11185(3) 0.48(1) 1. 0
O16 O0+ 4 i 0.4225(3) 0.19848(24) 0.17058(3) 0.47(1) 1. 0
O17 O0+ 4 i 0.4479(3) 0.18366(25) 0.22803(3) 0.46(1) 1. 0
#End of TTdata_35124-ICSD