
#(C) 2019 by FIZ Karlsruhe - Leibniz Institute for Information Infrastructure.  All rights reserved.
data_35123-ICSD
_database_code_ICSD 35123
_audit_creation_date 1982-12-31
_chemical_name_systematic 'Titanium oxide (8/15)'
_chemical_formula_structural 'Ti8 O15'
_chemical_formula_sum 'O15 Ti8'
_exptl_crystal_density_diffrn 4.28
_publ_section_title
'Structural chemistry of the Magneli phases Tin O(2n-1), 4<=n<=9'
loop_
_citation_id
_citation_journal_full
_citation_year
_citation_journal_volume
_citation_page_first
_citation_page_last
_citation_journal_id_ASTM
primary 'Journal of Solid State Chemistry' 1982 44 273 281 JSSCBI
loop_
_publ_author_name
'le Page, Y.'
'Strobel, P.'
_cell_length_a 5.526(1)
_cell_length_b 7.133(1)
_cell_length_c 44.059(6)
_cell_angle_alpha 66.54(1)
_cell_angle_beta 57.18(1)
_cell_angle_gamma 108.51(1)
_cell_volume 966.86
_cell_formula_units_Z 4
_symmetry_space_group_name_H-M 'I -1'
_symmetry_Int_Tables_number 2
_refine_ls_R_factor_all 0.03
loop_
_symmetry_equiv_pos_site_id
_symmetry_equiv_pos_as_xyz
1 '-x, -y, -z'
2 'x, y, z'
3 '-x+1/2, -y+1/2, -z+1/2'
4 'x+1/2, y+1/2, z+1/2'
loop_
_atom_type_symbol
_atom_type_oxidation_number
Ti0+ 0
O0+ 0
loop_
_atom_site_label
_atom_site_type_symbol
_atom_site_symmetry_multiplicity
_atom_site_Wyckoff_symbol
_atom_site_fract_x
_atom_site_fract_y
_atom_site_fract_z
_atom_site_B_iso_or_equiv
_atom_site_occupancy
_atom_site_attached_hydrogens
Ti1 Ti0+ 4 i 0.00490(17) 0.00533(12) 0.032340(21) 0.49(1) 1. 0
Ti2 Ti0+ 4 i 0.03156(16) 0.02307(11) 0.095800(19) 0.45(1) 1. 0
Ti3 Ti0+ 4 i 0.05726(15) 0.05485(10) 0.159760(19) 0.41(1) 1. 0
Ti4 Ti0+ 4 i 0.09216(15) 0.04119(10) 0.227220(19) 0.40(1) 1. 0
Ti5 Ti0+ 4 i 0.01200(17) 0.50575(12) 0.032360(21) 0.50(1) 1. 0
Ti6 Ti0+ 4 i 0.03377(16) 0.52580(11) 0.09657(2) 0.50(1) 1. 0
Ti7 Ti0+ 4 i 0.05330(15) 0.54622(10) 0.161410(19) 0.41(1) 1. 0
Ti8 Ti0+ 4 i 0.09541(15) 0.54753(10) 0.225200(19) 0.40(1) 1. 0
O1 O0+ 4 i 0.9921(6) 0.6946(4) 0.05492(8) 0.48(1) 1. 0
O2 O0+ 4 i 0.9960(6) 0.7047(4) 0.12063(8) 0.51(1) 1. 0
O3 O0+ 4 i 0.9271(6) 0.6759(4) 0.19678(8) 0.48(1) 1. 0
O4 O0+ 4 i 0.0128(6) 0.3120(4) 0.01151(8) 0.46(1) 1. 0
O5 O0+ 4 i 0.0328(6) 0.3263(4) 0.07661(8) 0.46(1) 1. 0
O6 O0+ 4 i 0.0627(6) 0.3430(4) 0.14043(8) 0.48(1) 1. 0
O7 O0+ 4 i 0.0346(6) 0.3147(4) 0.21074(8) 0.44(1) 1. 0
O8 O0+ 4 i 0.6108(6) 0.8155(4) 0.03858(8) 0.52(1) 1. 0
O9 O0+ 4 i 0.6231(16) 0.8305(4) 0.10511(8) 0.53(1) 1. 0
O10 O0+ 4 i 0.6430(6) 0.8459(4) 0.16930(8) 0.50(1) 1. 0
O11 O0+ 4 i 0.6215(6) 0.8429(4) 0.23719(8) 0.47(1) 1. 0
O12 O0+ 4 i 0.4016(6) 0.1970(4) 0.02702(8) 0.48(1) 1. 0
O13 O0+ 4 i 0.4108(6) 0.1977(4) 0.09383(8) 0.47(1) 1. 0
O14 O0+ 4 i 0.4199(6) 0.1960(4) 0.16018(8) 0.48(1) 1. 0
O15 O0+ 4 i 0.4458(6) 0.1826(4) 0.22525(8) 0.45(1) 1. 0
#End of TTdata_35123-ICSD