
#(C) 2019 by FIZ Karlsruhe - Leibniz Institute for Information Infrastructure.  All rights reserved.
data_41055-ICSD
_database_code_ICSD 41055
_audit_creation_date 2001-07-16
_audit_update_record 2017-08-01
_chemical_name_systematic 'Dideuterium trititanium oxide'
_chemical_formula_structural 'D2 Ti3 O7'
_chemical_formula_sum 'D2 O7 Ti3'
_chemical_name_structure_type H2Ti3O7
_exptl_crystal_density_diffrn 3.19
_publ_section_title
'The soft chemical synthesis of TiO2 (B) from layered titanates'
loop_
_citation_id
_citation_journal_full
_citation_year
_citation_journal_volume
_citation_page_first
_citation_page_last
_citation_journal_id_ASTM
primary 'Journal of Solid State Chemistry' 1992 101 275 295 JSSCBI
loop_
_publ_author_name
'Feist, Thomas P.'
'Davies, Peter K.'
_cell_length_a 16.025(3)
_cell_length_b 3.747(1)
_cell_length_c 9.188(1)
_cell_angle_alpha 90.
_cell_angle_beta 101.457(10)
_cell_angle_gamma 90.
_cell_volume 540.7
_cell_formula_units_Z 4
_symmetry_space_group_name_H-M 'C 1 2/m 1'
_symmetry_Int_Tables_number 12
_refine_ls_R_factor_all 0.047
loop_
_symmetry_equiv_pos_site_id
_symmetry_equiv_pos_as_xyz
1 '-x, y, -z'
2 '-x, -y, -z'
3 'x, -y, z'
4 'x, y, z'
5 '-x+1/2, y+1/2, -z'
6 '-x+1/2, -y+1/2, -z'
7 'x+1/2, -y+1/2, z'
8 'x+1/2, y+1/2, z'
loop_
_atom_type_symbol
_atom_type_oxidation_number
Ti4+ 4
O2- -2
D1+ 1
loop_
_atom_site_label
_atom_site_type_symbol
_atom_site_symmetry_multiplicity
_atom_site_Wyckoff_symbol
_atom_site_fract_x
_atom_site_fract_y
_atom_site_fract_z
_atom_site_B_iso_or_equiv
_atom_site_occupancy
_atom_site_attached_hydrogens
Ti1 Ti4+ 4 i 0.225(2) 0 0.223(4) 0.2 1. 0
Ti2 Ti4+ 4 i 0.168(2) 0 0.511(4) 0.2 1. 0
Ti3 Ti4+ 4 i 0.125(2) 0 0.823(3) 0.2 1. 0
O1 O2- 4 i 0.169(1) 0 0.041(2) 0.5 1. 0
O2 O2- 4 i 0.134(1) 0 0.316(2) 0.5 1. 0
O3 O2- 4 i 0.085(1) 0 0.608(3) 0.5 1. 0
O4 O2- 4 i 0.007(1) 0 0.855(2) 0.5 1. 0
O5 O2- 4 i 0.349(1) 0 0.176(2) 0.5 1. 0
O6 O2- 4 i 0.290(1) 0 0.462(2) 0.5 1. 0
O7 O2- 4 i 0.239(1) 0 0.744(3) 0.5 1. 0
#End of TTdata_41055-ICSD