
#(C) 2019 by FIZ Karlsruhe - Leibniz Institute for Information Infrastructure.  All rights reserved.
data_416748-ICSD
_database_code_ICSD 416748
_audit_creation_date 2011-02-01
_chemical_name_systematic 'Manganese(VII) trioxide fluoride'
_chemical_formula_structural 'Mn O3 F'
_chemical_formula_sum 'F1 Mn1 O3'
_exptl_crystal_density_diffrn 2.7
_cell_measurement_temperature 153.
_publ_section_title 'Mn O3 Cl, isolation and crystal structure'
loop_
_citation_id
_citation_journal_full
_citation_year
_citation_journal_volume
_citation_page_first
_citation_page_last
_citation_journal_id_ASTM
primary 'Zeitschrift fuer Anorganische und Allgemeine Chemie (1950) (DE)' 2006
632 2222 2225 ZAACAB
loop_
_publ_author_name
'Spandl, J.'
'Supel, J.'
'Drews, T.'
'Seppelt, K.'
_cell_length_a 9.163(11)
_cell_length_b 4.349(4)
_cell_length_c 8.417(12)
_cell_angle_alpha 90.
_cell_angle_beta 116.77(3)
_cell_angle_gamma 90.
_cell_volume 299.47
_cell_formula_units_Z 4
_symmetry_space_group_name_H-M 'C 1 2/c 1'
_symmetry_Int_Tables_number 15
_refine_ls_R_factor_all 0.0241
loop_
_symmetry_equiv_pos_site_id
_symmetry_equiv_pos_as_xyz
1 'x, -y, z+1/2'
2 '-x, -y, -z'
3 '-x, y, -z+1/2'
4 'x, y, z'
5 'x+1/2, -y+1/2, z+1/2'
6 '-x+1/2, -y+1/2, -z'
7 '-x+1/2, y+1/2, -z+1/2'
8 'x+1/2, y+1/2, z'
loop_
_atom_type_symbol
_atom_type_oxidation_number
Mn7+ 7
O2- -2
F1- -1
loop_
_atom_site_label
_atom_site_type_symbol
_atom_site_symmetry_multiplicity
_atom_site_Wyckoff_symbol
_atom_site_fract_x
_atom_site_fract_y
_atom_site_fract_z
_atom_site_B_iso_or_equiv
_atom_site_occupancy
_atom_site_attached_hydrogens
Mn1 Mn7+ 4 e 0.5 0.23679(8) 0.75 0.01930(17) 1 0
O1 O2- 8 f 0.38459(17) 0.4520(3) 0.80390(19) 0.0296(3) 0.75 0
O2 O2- 8 f 0.38649(17) 0.0213(3) 0.58264(17) 0.0297(3) 0.75 0
F1 F1- 8 f 0.38459(17) 0.4520(3) 0.80390(19) 0.0296(3) 0.25 0
F2 F1- 8 f 0.38649(17) 0.0213(3) 0.58264(17) 0.0297(3) 0.25 0
loop_
_atom_site_aniso_label
_atom_site_aniso_type_symbol
_atom_site_aniso_U_11
_atom_site_aniso_U_22
_atom_site_aniso_U_33
_atom_site_aniso_U_12
_atom_site_aniso_U_13
_atom_site_aniso_U_23
Mn1 Mn7+ 0.0203(2) 0.0190(2) 0.0191(2) 0. 0.00933(16) 0.
O1 O2- 0.0304(7) 0.0295(7) 0.0323(7) 0.0028(6) 0.0171(5) -0.0031(6)
O2 O2- 0.0297(7) 0.0302(7) 0.0264(6) -0.0022(6) 0.0102(5) -0.0055(5)
F1 F1- 0.0304(7) 0.0295(7) 0.0323(7) 0.0028(6) 0.0171(5) -0.0031(6)
F2 F1- 0.0297(7) 0.0302(7) 0.0264(6) -0.0022(6) 0.0102(5) -0.0055(5)
#End of TTdata_416748-ICSD