
#(C) 2019 by FIZ Karlsruhe - Leibniz Institute for Information Infrastructure.  All rights reserved.
data_430183-ICSD
_database_code_ICSD 430183
_audit_creation_date 2016-02-01
_chemical_name_systematic 'Oxygen(II) difluoride'
_chemical_formula_structural 'O F2'
_chemical_formula_sum 'F2 O1'
_chemical_name_structure_type VO2
_exptl_crystal_density_diffrn 2.06
_cell_measurement_temperature 24.
_publ_section_title 'Structure investigations on oxygen fluorides'
loop_
_citation_id
_citation_journal_full
_citation_year
_citation_journal_volume
_citation_page_first
_citation_page_last
_citation_journal_id_ASTM
primary 'Dalton Transactions' 2015 44 19659 19662 DTARAF
loop_
_publ_author_name
'Marx, Rupert'
'Seppelt, Konrad'
_cell_length_a 8.2394(8)
_cell_length_b 6.5194(6)
_cell_length_c 3.2383(3)
_cell_angle_alpha 90.
_cell_angle_beta 90.
_cell_angle_gamma 90.
_cell_volume 173.95
_cell_formula_units_Z 4
_symmetry_space_group_name_H-M 'P n a m'
_symmetry_Int_Tables_number 62
_refine_ls_R_factor_all 0.139
loop_
_symmetry_equiv_pos_site_id
_symmetry_equiv_pos_as_xyz
1 'x+1/2, -y+1/2, z'
2 'x, y, -z+1/2'
3 '-x+1/2, y+1/2, z+1/2'
4 '-x, -y, -z'
5 '-x+1/2, y+1/2, -z'
6 '-x, -y, z+1/2'
7 'x+1/2, -y+1/2, -z+1/2'
8 'x, y, z'
loop_
_atom_type_symbol
_atom_type_oxidation_number
F1- -1
O2+ 2
loop_
_atom_site_label
_atom_site_type_symbol
_atom_site_symmetry_multiplicity
_atom_site_Wyckoff_symbol
_atom_site_fract_x
_atom_site_fract_y
_atom_site_fract_z
_atom_site_B_iso_or_equiv
_atom_site_occupancy
_atom_site_attached_hydrogens
F1 F1- 4 c 0.1094(6) -0.1614(6) 0.25 0.035(2) 1. 0
F2 F1- 4 c 0.1994(3) 0.0316(6) 0.25 0.035(2) 1. 0
O1 O2+ 4 c 0.3559(5) -0.0554(7) 0.25 0.035(2) 1. 0
#End of TTdata_430183-ICSD