
#(C) 2019 by FIZ Karlsruhe - Leibniz Institute for Information Infrastructure.  All rights reserved.
data_44407-ICSD
_database_code_ICSD 44407
_audit_creation_date 2000-12-16
_audit_update_record 2005-10-01
_chemical_name_systematic 'Manganese titanate'
_chemical_formula_structural 'Mn (Ti O3)'
_chemical_formula_sum 'Mn1 O3 Ti1'
_chemical_name_structure_type Ilmenite-FeTiO3
_chemical_name_mineral Pyrophanite
_exptl_crystal_density_diffrn 4.6
_cell_measurement_temperature 4.2
_publ_section_title
'Neutron-diffraction study of antiferromagnetic Mn Ti O3 and Ni Ti O3'
loop_
_citation_id
_citation_journal_full
_citation_year
_citation_journal_volume
_citation_page_first
_citation_page_last
_citation_journal_id_ASTM
primary 'Journal of the Physical Society of Japan' 1959 14 1352 1360 JUPSAU
loop_
_publ_author_name
'Shirane, G.'
'Pickart, S.J.'
'Ishikawa, Y.'
_cell_length_a 5.61
_cell_length_b 5.61
_cell_length_c 5.61
_cell_angle_alpha 54.5
_cell_angle_beta 54.5
_cell_angle_gamma 54.5
_cell_volume 108.84
_cell_formula_units_Z 2
_symmetry_space_group_name_H-M 'R -3 R'
_symmetry_Int_Tables_number 148
loop_
_symmetry_equiv_pos_site_id
_symmetry_equiv_pos_as_xyz
1 '-z, -x, -y'
2 '-y, -z, -x'
3 '-x, -y, -z'
4 'z, x, y'
5 'y, z, x'
6 'x, y, z'
loop_
_atom_type_symbol
_atom_type_oxidation_number
Mn2+ 2
Ti4+ 4
O2- -2
loop_
_atom_site_label
_atom_site_type_symbol
_atom_site_symmetry_multiplicity
_atom_site_Wyckoff_symbol
_atom_site_fract_x
_atom_site_fract_y
_atom_site_fract_z
_atom_site_B_iso_or_equiv
_atom_site_occupancy
_atom_site_attached_hydrogens
Mn1 Mn2+ 2 c 0.357 0.357 0.357 . 1. 0
Ti1 Ti4+ 2 c 0.143 0.143 0.143 . 1. 0
O1 O2- 6 f 0.56 -.05 0.22 . 1. 0
#End of TTdata_44407-ICSD