
#(C) 2019 by FIZ Karlsruhe - Leibniz Institute for Information Infrastructure.  All rights reserved.
data_56152-ICSD
_database_code_ICSD 56152
_audit_creation_date 2003-04-01
_audit_update_record 2005-10-01
_chemical_name_systematic 'Manganese hydroxide'
_chemical_formula_structural 'Mn (O H)2'
_chemical_formula_sum 'H2 Mn1 O2'
_chemical_name_structure_type Brucite-Mg(OH)2
_chemical_name_mineral Pyrochroite
_exptl_crystal_density_diffrn 3.25
_publ_section_title 'Constitution of hydroxides and hydrates'
loop_
_citation_id
_citation_journal_full
_citation_year
_citation_journal_volume
_citation_page_first
_citation_page_last
_citation_journal_id_ASTM
primary 'Gazzetta Chimica Italiana' 1928 58 344 358 GCITA9
loop_
_publ_author_name
'Natta, G.'
_cell_length_a 3.347
_cell_length_b 3.347
_cell_length_c 4.689
_cell_angle_alpha 90.
_cell_angle_beta 90.
_cell_angle_gamma 120.
_cell_volume 45.49
_cell_formula_units_Z 1
_symmetry_space_group_name_H-M 'P -3 m 1'
_symmetry_Int_Tables_number 164
loop_
_symmetry_equiv_pos_site_id
_symmetry_equiv_pos_as_xyz
1 'x-y, -y, -z'
2 '-x, -x+y, -z'
3 'y, x, -z'
4 'x-y, x, -z'
5 'y, -x+y, -z'
6 '-x, -y, -z'
7 '-x+y, y, z'
8 'x, x-y, z'
9 '-y, -x, z'
10 '-x+y, -x, z'
11 '-y, x-y, z'
12 'x, y, z'
loop_
_atom_type_symbol
_atom_type_oxidation_number
Mn2+ 2
O2- -2
H1+ 1
loop_
_atom_site_label
_atom_site_type_symbol
_atom_site_symmetry_multiplicity
_atom_site_Wyckoff_symbol
_atom_site_fract_x
_atom_site_fract_y
_atom_site_fract_z
_atom_site_B_iso_or_equiv
_atom_site_occupancy
_atom_site_attached_hydrogens
Mn1 Mn2+ 1 a 0 0 0 . 1. 0
O1 O2- 2 d 0.3333 0.6667 0.26 . 1. 0
#End of TTdata_56152-ICSD