
#(C) 2019 by FIZ Karlsruhe - Leibniz Institute for Information Infrastructure.  All rights reserved.
data_57154-ICSD
_database_code_ICSD 57154
_audit_creation_date 2003-10-01
_audit_update_record 2012-08-01
_chemical_name_systematic 'Titanium oxide - beta'
_chemical_formula_structural 'Ti O2'
_chemical_formula_sum 'O2 Ti1'
_chemical_name_structure_type VO2(HT)
_exptl_crystal_density_diffrn 3.75
_publ_section_title

;
The identification of naturally occuring Ti O2(B) by structure determination
using high-resolution electron microscopy, image simulation and distance
leas-sqares refinement
;
loop_
_citation_id
_citation_journal_full
_citation_year
_citation_journal_volume
_citation_page_first
_citation_page_last
_citation_journal_id_ASTM
primary 'American Mineralogist' 1991 76 343 353 AMMIAY
loop_
_publ_author_name
'Banfield, J.F.'
'Veblen, D.R.'
'Smith, D.J.'
_cell_length_a 12.16
_cell_length_b 3.74
_cell_length_c 6.51
_cell_angle_alpha 90.
_cell_angle_beta 107.29
_cell_angle_gamma 90.
_cell_volume 282.69
_cell_formula_units_Z 8
_symmetry_space_group_name_H-M 'C 1 2/m 1'
_symmetry_Int_Tables_number 12
loop_
_symmetry_equiv_pos_site_id
_symmetry_equiv_pos_as_xyz
1 '-x, y, -z'
2 '-x, -y, -z'
3 'x, -y, z'
4 'x, y, z'
5 '-x+1/2, y+1/2, -z'
6 '-x+1/2, -y+1/2, -z'
7 'x+1/2, -y+1/2, z'
8 'x+1/2, y+1/2, z'
loop_
_atom_type_symbol
_atom_type_oxidation_number
Ti4+ 4
O2- -2
loop_
_atom_site_label
_atom_site_type_symbol
_atom_site_symmetry_multiplicity
_atom_site_Wyckoff_symbol
_atom_site_fract_x
_atom_site_fract_y
_atom_site_fract_z
_atom_site_B_iso_or_equiv
_atom_site_occupancy
_atom_site_attached_hydrogens
Ti1 Ti4+ 4 i 0.18 0.5 0.28 . 1. 0
Ti2 Ti4+ 4 i 0.4 0 0.26 . 1. 0
O1 O2- 4 i 0.63 0 0.01 . 1. 0
O2 O2- 4 i 0.24 0 0.34 . 1. 0
O3 O2- 4 i 0.44 0 0.63 . 1. 0
O4 O2- 4 i 0.65 0.5 0.72 . 1. 0
#End of TTdata_57154-ICSD