
#(C) 2019 by FIZ Karlsruhe - Leibniz Institute for Information Infrastructure, and the U.S. Secretary of
#Commerce on behalf of the United States.  All rights reserved.
data_643833-ICSD
_database_code_ICSD 643833
_audit_creation_date 2012-08-01
_chemical_name_systematic 'Manganese titanium (44.2/8.8)'
_chemical_formula_structural 'Mn44.2 Ti8.8'
_chemical_formula_sum 'Mn44.2 Ti8.8'
_chemical_name_structure_type Co5Cr2Mo3
_exptl_crystal_density_diffrn 6.96
_publ_section_title
'Identification of intermediate phases in the manganese-titanium system'
_publ_section_comment 'Cell and Type only determined'
loop_
_citation_id
_citation_journal_full
_citation_year
_citation_journal_volume
_citation_page_first
_citation_page_last
_citation_journal_id_ASTM
primary 'Transactions of the Metallurgical Society of AIME' 1961 221 687 690
TMSAAB
loop_
_publ_author_name
'Waterstrat, R.M.'
_cell_length_a 11.003
_cell_length_b 11.003
_cell_length_c 19.446
_cell_angle_alpha 90.
_cell_angle_beta 90.
_cell_angle_gamma 120.
_cell_volume 2038.84
_cell_formula_units_Z 3
_symmetry_space_group_name_H-M 'R -3 H'
_symmetry_Int_Tables_number 148
loop_
_symmetry_equiv_pos_site_id
_symmetry_equiv_pos_as_xyz
1 'x-y, x, -z'
2 'y, -x+y, -z'
3 '-x, -y, -z'
4 '-x+y, -x, z'
5 '-y, x-y, z'
6 'x, y, z'
7 'x-y+2/3, x+1/3, -z+1/3'
8 'y+2/3, -x+y+1/3, -z+1/3'
9 '-x+2/3, -y+1/3, -z+1/3'
10 '-x+y+2/3, -x+1/3, z+1/3'
11 '-y+2/3, x-y+1/3, z+1/3'
12 'x+2/3, y+1/3, z+1/3'
13 'x-y+1/3, x+2/3, -z+2/3'
14 'y+1/3, -x+y+2/3, -z+2/3'
15 '-x+1/3, -y+2/3, -z+2/3'
16 '-x+y+1/3, -x+2/3, z+2/3'
17 '-y+1/3, x-y+2/3, z+2/3'
18 'x+1/3, y+2/3, z+2/3'
loop_
_atom_type_symbol
_atom_type_oxidation_number
Mn0+ 0
Ti0+ 0
Mn0+ 0
Ti0+ 0
Mn0+ 0
Ti0+ 0
Mn0+ 0
Ti0+ 0
Mn0+ 0
loop_
_atom_site_label
_atom_site_type_symbol
_atom_site_symmetry_multiplicity
_atom_site_Wyckoff_symbol
_atom_site_fract_x
_atom_site_fract_y
_atom_site_fract_z
_atom_site_B_iso_or_equiv
_atom_site_occupancy
_atom_site_attached_hydrogens
Mn1 Mn0+ 3 b 0 0 0.5 . 1. 0
Ti1 Ti0+ 6 c 0 0 0.304 . 0.44 0
Mn2 Mn0+ 6 c 0 0 0.304 . 0.56 0
Ti2 Ti0+ 18 f 0.051 0.279 0.1 . 0.44 0
Mn3 Mn0+ 18 f 0.051 0.279 0.1 . 0.56 0
Mn4 Mn0+ 6 c 0 0 0.074 . 1. 0
Mn5 Mn0+ 18 f 0.267 0.222 0.122 . 1. 0
Mn6 Mn0+ 18 f 0.021 0.139 0.196 . 1. 0
Ti3 Ti0+ 18 f 0.225 0.197 0.268 . 0.44 0
Mn7 Mn0+ 18 f 0.225 0.197 0.268 . 0.56 0
Mn8 Mn0+ 18 f 0.176 0.126 0.37 . 1. 0
Mn9 Mn0+ 18 f 0.113 0.269 0.465 . 1. 0
Mn10 Mn0+ 18 f 0.033 0.258 0.318 . 1. 0
Ti4 Ti0+ 18 f 0.16 0.247 0.002 . 0.44 0
Mn11 Mn0+ 18 f 0.16 0.247 0.002 . 0.56 0
#End of TTdata_643833-ICSD