
#(C) 2019 by FIZ Karlsruhe - Leibniz Institute for Information Infrastructure, and the U.S. Secretary of
#Commerce on behalf of the United States.  All rights reserved.
data_643831-ICSD
_database_code_ICSD 643831
_audit_creation_date 2012-08-01
_chemical_name_systematic 'Manganese titanium (1/1)'
_chemical_formula_structural 'Mn Ti'
_chemical_formula_sum 'Mn1 Ti1'
_chemical_name_structure_type U(beta)-CrFe
_exptl_crystal_density_diffrn 7.15
_publ_section_title

;
Structure of the phase Ti Mn and the indexing of powder patterns of sigma -
type phases
;
_publ_section_comment 'Cell and Type only determined'
loop_
_citation_id
_citation_journal_full
_citation_year
_citation_journal_volume
_citation_page_first
_citation_page_last
_citation_journal_id_ASTM
primary

;
Transactions of the American Institute of Mining, Metallurgical and Petroleum
Engineers
; 1953 197 1203 1204 TAIMAF
loop_
_publ_author_name
'Elliott, R.P.'
'Rostoker, W.'
_cell_length_a 8.88
_cell_length_b 8.88
_cell_length_c 4.542
_cell_angle_alpha 90.
_cell_angle_beta 90.
_cell_angle_gamma 90.
_cell_volume 358.16
_cell_formula_units_Z 15
_symmetry_space_group_name_H-M 'P 42/m n m'
_symmetry_Int_Tables_number 136
loop_
_symmetry_equiv_pos_site_id
_symmetry_equiv_pos_as_xyz
1 '-y+1/2, x+1/2, -z+1/2'
2 'y+1/2, -x+1/2, -z+1/2'
3 'y, x, -z'
4 '-y, -x, -z'
5 'y+1/2, -x+1/2, z+1/2'
6 '-y+1/2, x+1/2, z+1/2'
7 '-y, -x, z'
8 'y, x, z'
9 'x+1/2, -y+1/2, -z+1/2'
10 '-x+1/2, y+1/2, -z+1/2'
11 'x, y, -z'
12 '-x, -y, -z'
13 '-x+1/2, y+1/2, z+1/2'
14 'x+1/2, -y+1/2, z+1/2'
15 '-x, -y, z'
16 'x, y, z'
loop_
_atom_type_symbol
_atom_type_oxidation_number
Mn0+ 0
Ti0+ 0
Mn0+ 0
Ti0+ 0
Mn0+ 0
Ti0+ 0
Mn0+ 0
Ti0+ 0
Mn0+ 0
Ti0+ 0
loop_
_atom_site_label
_atom_site_type_symbol
_atom_site_symmetry_multiplicity
_atom_site_Wyckoff_symbol
_atom_site_fract_x
_atom_site_fract_y
_atom_site_fract_z
_atom_site_B_iso_or_equiv
_atom_site_occupancy
_atom_site_attached_hydrogens
Mn1 Mn0+ 2 a 0 0 0 . 0.9 0
Ti1 Ti0+ 2 a 0 0 0 . 0.1 0
Mn2 Mn0+ 4 f 0.398 0.398 0 . 0.3 0
Ti2 Ti0+ 4 f 0.398 0.398 0 . 0.7 0
Mn3 Mn0+ 8 i 0.463 0.132 0 . 0.3 0
Ti3 Ti0+ 8 i 0.463 0.132 0 . 0.7 0
Mn4 Mn0+ 8 i 0.738 0.065 0 . 0.9 0
Ti4 Ti0+ 8 i 0.738 0.065 0 . 0.1 0
Mn5 Mn0+ 8 j 0.182 0.182 0.252 . 0.3 0
Ti5 Ti0+ 8 j 0.182 0.182 0.252 . 0.7 0
#End of TTdata_643831-ICSD