
#(C) 2019 by FIZ Karlsruhe - Leibniz Institute for Information Infrastructure.  All rights reserved.
data_65359-ICSD
_database_code_ICSD 65359
_audit_creation_date 1989-12-04
_audit_update_record 2005-10-01
_chemical_name_systematic 'Manganese titanate - HP'
_chemical_formula_structural 'Mn (Ti O3)'
_chemical_formula_sum 'Mn1 O3 Ti1'
_chemical_name_structure_type LiNbO3
_chemical_name_mineral 'Pyrophanite HP'
_exptl_crystal_density_diffrn 4.68
_publ_section_title

;
High-pressure phase transition in Mn Ti O3 from the ilmenite to the Li Nb O3
structure
;
loop_
_citation_id
_citation_journal_full
_citation_year
_citation_journal_volume
_citation_page_first
_citation_page_last
_citation_journal_id_ASTM
primary 'Physics and Chemistry of Minerals' 1988 15 355 362 PCMIDU
loop_
_publ_author_name
'Ko, J.'
'Prewitt, C.T.'
_cell_length_a 5.205(1)
_cell_length_b 5.205(1)
_cell_length_c 13.700(2)
_cell_angle_alpha 90.
_cell_angle_beta 90.
_cell_angle_gamma 120.
_cell_volume 321.43
_cell_formula_units_Z 6
_symmetry_space_group_name_H-M 'R 3 c H'
_symmetry_Int_Tables_number 161
_refine_ls_R_factor_all 0.034
loop_
_symmetry_equiv_pos_site_id
_symmetry_equiv_pos_as_xyz
1 '-x+y, y, z+1/2'
2 'x, x-y, z+1/2'
3 '-y, -x, z+1/2'
4 '-x+y, -x, z'
5 '-y, x-y, z'
6 'x, y, z'
7 '-x+y+2/3, y+1/3, z+5/6'
8 'x+2/3, x-y+1/3, z+5/6'
9 '-y+2/3, -x+1/3, z+5/6'
10 '-x+y+2/3, -x+1/3, z+1/3'
11 '-y+2/3, x-y+1/3, z+1/3'
12 'x+2/3, y+1/3, z+1/3'
13 '-x+y+1/3, y+2/3, z+1/6'
14 'x+1/3, x-y+2/3, z+1/6'
15 '-y+1/3, -x+2/3, z+1/6'
16 '-x+y+1/3, -x+2/3, z+2/3'
17 '-y+1/3, x-y+2/3, z+2/3'
18 'x+1/3, y+2/3, z+2/3'
loop_
_atom_type_symbol
_atom_type_oxidation_number
Mn2+ 2
Ti4+ 4
O2- -2
loop_
_atom_site_label
_atom_site_type_symbol
_atom_site_symmetry_multiplicity
_atom_site_Wyckoff_symbol
_atom_site_fract_x
_atom_site_fract_y
_atom_site_fract_z
_atom_site_B_iso_or_equiv
_atom_site_occupancy
_atom_site_attached_hydrogens
Mn1 Mn2+ 6 a 0 0 0.27616(8) . 1. 0
Ti1 Ti4+ 6 a 0 0 0 . 1. 0
O1 O2- 18 b 0.0601(6) 0.3427(6) 0.0634(2) . 1. 0
loop_
_atom_site_aniso_label
_atom_site_aniso_type_symbol
_atom_site_aniso_beta_11
_atom_site_aniso_beta_22
_atom_site_aniso_beta_33
_atom_site_aniso_beta_12
_atom_site_aniso_beta_13
_atom_site_aniso_beta_23
Mn1 Mn2+ 0.00692(36) 0.00692(36) 0.00125(7) 0.00346(18) 0 0
Ti1 Ti4+ 0.00523(34) 0.00523(34) 0.00069(6) 0.00262(17) 0 0
O1 O2- 0.0063(11) 0.0061(10) 0.00103(9) 0.0031(11) -.0005(4) -.0004(2)
#End of TTdata_65359-ICSD