
#(C) 2019 by FIZ Karlsruhe - Leibniz Institute for Information Infrastructure, and the U.S. Secretary of
#Commerce on behalf of the United States.  All rights reserved.
data_672181-ICSD
_database_code_ICSD 672181
_audit_creation_date 2017-08-01
_chemical_name_systematic 'Manganese Oxide (5/8)'
_chemical_formula_structural 'Mn5 O8'
_chemical_formula_sum 'Mn5 O8'
_chemical_name_structure_type Cd2Mn3O8
_exptl_crystal_density_diffrn 4.89
_publ_section_title

;
Theoretical and experimental investigation on structural, electronic and
magnetic properties of layered Mn5O8
;
loop_
_citation_id
_citation_journal_full
_citation_year
_citation_journal_volume
_citation_page_first
_citation_page_last
_citation_journal_id_ASTM
primary 'Physical Chemistry Chemical Physics' 2016 18 27885 27896 PPCPFQ
loop_
_publ_author_name
'Ashwin Kishore, M.R.'
'Okamoto, H.'
'Patra, Lokanath'
'Vidya, R.'
'Sjaastad, Anja O.'
'Fjellvaag, H.'
'Ravindran, P.'
_cell_length_a 10.3228
_cell_length_b 5.7436
_cell_length_c 4.8887
_cell_angle_alpha 90
_cell_angle_beta 109.43
_cell_angle_gamma 90
_cell_volume 273.34
_cell_formula_units_Z 2
_symmetry_space_group_name_H-M 'C 1 2/m 1'
_symmetry_Int_Tables_number 12
loop_
_symmetry_equiv_pos_site_id
_symmetry_equiv_pos_as_xyz
1 '-x, y, -z'
2 '-x, -y, -z'
3 'x, -y, z'
4 'x, y, z'
5 '-x+1/2, y+1/2, -z'
6 '-x+1/2, -y+1/2, -z'
7 'x+1/2, -y+1/2, z'
8 'x+1/2, y+1/2, z'
loop_
_atom_type_symbol
_atom_type_oxidation_number
Mn0+ 0
O0+ 0
loop_
_atom_site_label
_atom_site_type_symbol
_atom_site_symmetry_multiplicity
_atom_site_Wyckoff_symbol
_atom_site_fract_x
_atom_site_fract_y
_atom_site_fract_z
_atom_site_B_iso_or_equiv
_atom_site_occupancy
_atom_site_attached_hydrogens
Mn1 Mn0+ 2 c 0. 0. 0.5 1. 1. 0
Mn2 Mn0+ 4 g 0. 0.26 0. 1. 1. 0
Mn3 Mn0+ 4 i 0.7163 0. 0.6576 1. 1. 0
O1 O0+ 8 j 0.1137 0.2272 0.3984 1. 1. 0
O2 O0+ 4 i 0.1054 0. 0.9118 1. 1. 0
O3 O0+ 4 i 0.6064 0. 0.9247 1. 1. 0
#End of TTdata_672181-ICSD