
#(C) 2019 by FIZ Karlsruhe - Leibniz Institute for Information Infrastructure, and the U.S. Secretary of
#Commerce on behalf of the United States.  All rights reserved.
data_672791-ICSD
_database_code_ICSD 672791
_audit_creation_date 2018-02-01
_chemical_name_systematic 'Titanium Oxide'
_chemical_formula_structural 'Ti3 O5'
_chemical_formula_sum 'O5 Ti3'
_exptl_crystal_density_diffrn 4.25
_publ_section_title
'Study of Mn absorption by complex oxide inclusions in Al-Ti-Mg killed steels'
loop_
_citation_id
_citation_journal_full
_citation_year
_citation_journal_volume
_citation_page_first
_citation_page_last
_citation_journal_id_ASTM
primary 'Acta Materialia' 2016 118 8 16 ACMAFD
loop_
_publ_author_name
'Hou, Yanhui'
'Zheng, Wan'
'Wu, Zhenhua'
'Li, Guangqiang'
'Moelans, Nele'
'Guo, Muxing'
'Khan, Babar Shahzad'
_cell_length_a 9.7568
_cell_length_b 3.8008
_cell_length_c 9.4389
_cell_angle_alpha 90
_cell_angle_beta 91.547
_cell_angle_gamma 90
_cell_volume 349.9
_cell_formula_units_Z 4
_symmetry_space_group_name_H-M 'C 1 2/m 1'
_symmetry_Int_Tables_number 12
loop_
_symmetry_equiv_pos_site_id
_symmetry_equiv_pos_as_xyz
1 '-x, y, -z'
2 '-x, -y, -z'
3 'x, -y, z'
4 'x, y, z'
5 '-x+1/2, y+1/2, -z'
6 '-x+1/2, -y+1/2, -z'
7 'x+1/2, -y+1/2, z'
8 'x+1/2, y+1/2, z'
loop_
_atom_type_symbol
_atom_type_oxidation_number
Ti0+ 0
O0+ 0
loop_
_atom_site_label
_atom_site_type_symbol
_atom_site_symmetry_multiplicity
_atom_site_Wyckoff_symbol
_atom_site_fract_x
_atom_site_fract_y
_atom_site_fract_z
_atom_site_B_iso_or_equiv
_atom_site_occupancy
_atom_site_attached_hydrogens
Ti1 Ti0+ 4 i 0.1276 0. 0.5437 1. 1. 0
Ti2 Ti0+ 4 i 0.0546 0. 0.865 1. 1. 0
Ti3 Ti0+ 4 i 0.2219 0. 0.2337 1. 1. 0
O1 O0+ 4 i 0.233 0. 0.746 1. 1. 0
O2 O0+ 4 i 0.051 0. 0.344 1. 1. 0
O3 O0+ 4 i 0.13 0. 0.06 1. 1. 0
O4 O0+ 4 i 0.328 0. 0.439 1. 1. 0
O5 O0+ 4 i 0.408 0. 0.153 1. 1. 0
#End of TTdata_672791-ICSD