
#(C) 2019 by FIZ Karlsruhe - Leibniz Institute for Information Infrastructure.  All rights reserved.
data_75194-ICSD
_database_code_ICSD 75194
_audit_creation_date 1995-10-17
_audit_update_record 2013-02-01
_chemical_name_systematic 'Titanium oxide (3/5) - L'
_chemical_formula_structural 'Ti3 O5'
_chemical_formula_sum 'O5 Ti3'
_chemical_name_structure_type Ti3O5
_exptl_crystal_density_diffrn 4.25
_publ_section_title
'Phase equilibria and structural studies on the solid solution MgTi2O5-Ti3O5'
loop_
_citation_id
_citation_journal_full
_citation_year
_citation_journal_volume
_citation_page_first
_citation_page_last
_citation_journal_id_ASTM
primary 'Journal of Solid State Chemistry' 1994 113 62 73 JSSCBI
loop_
_publ_author_name
'Grey, I.E.'
'Li, C.'
'Madsen, I.C.'
_cell_length_a 9.7568(2)
_cell_length_b 3.80077(9)
_cell_length_c 9.4389(1)
_cell_angle_alpha 90.
_cell_angle_beta 91.547(1)
_cell_angle_gamma 90.
_cell_volume 349.9
_cell_formula_units_Z 4
_symmetry_space_group_name_H-M 'C 1 2/m 1'
_symmetry_Int_Tables_number 12
_refine_ls_R_factor_all 0.055
loop_
_symmetry_equiv_pos_site_id
_symmetry_equiv_pos_as_xyz
1 '-x, y, -z'
2 '-x, -y, -z'
3 'x, -y, z'
4 'x, y, z'
5 '-x+1/2, y+1/2, -z'
6 '-x+1/2, -y+1/2, -z'
7 'x+1/2, -y+1/2, z'
8 'x+1/2, y+1/2, z'
loop_
_atom_type_symbol
_atom_type_oxidation_number
Ti3+ 3.33
O2- -2
loop_
_atom_site_label
_atom_site_type_symbol
_atom_site_symmetry_multiplicity
_atom_site_Wyckoff_symbol
_atom_site_fract_x
_atom_site_fract_y
_atom_site_fract_z
_atom_site_B_iso_or_equiv
_atom_site_occupancy
_atom_site_attached_hydrogens
Ti1 Ti3+ 4 i 0.7781(5) 0 0.2663(2) 0.10(4) 1. 0
Ti2 Ti3+ 4 i 0.1276(5) 0 0.0437(2) 0.10(4) 1. 0
Ti3 Ti3+ 4 i 0.0546(4) 0 0.3650(2) 0.10(4) 1. 0
O1 O2- 4 i 0.233(2) 0 0.246(1) 0.64(7) 1. 0
O2 O2- 4 i 0.051(2) 0 0.844(1) 0.64(7) 1. 0
O3 O2- 4 i 0.130(2) 0 0.560(1) 0.64(7) 1. 0
O4 O2- 4 i 0.328(2) 0 0.939(1) 0.64(7) 1. 0
O5 O2- 4 i 0.408(2) 0 0.653(1) 0.64(7) 1. 0
#End of TTdata_75194-ICSD