
#(C) 2019 by FIZ Karlsruhe - Leibniz Institute for Information Infrastructure.  All rights reserved.
data_90958-ICSD
_database_code_ICSD 90958
_audit_creation_date 2002-04-01
_audit_update_record 2003-10-01
_chemical_name_systematic 'Titanium oxide (6/11)'
_chemical_formula_structural 'Ti6 O11'
_chemical_formula_sum 'O11 Ti6'
_exptl_crystal_density_diffrn 3.94
_publ_section_title

;
New M3 O5 - anatase intergrowth structures formed during low-temperature
oxidation of anosovite
;
loop_
_citation_id
_citation_journal_full
_citation_year
_citation_journal_volume
_citation_page_first
_citation_page_last
_citation_journal_id_ASTM
primary 'Journal of Solid State Chemistry' 2000 150 128 138 JSSCBI
loop_
_publ_author_name
'Grey, I.E.'
'Cranswick, L.M.D.'
'Li, C.'
'White, T.J.'
'Bursill, L.A.'
_cell_length_a 9.946(2)
_cell_length_b 3.744(2)
_cell_length_c 20.9940(30)
_cell_angle_alpha 90.
_cell_angle_beta 93.30(1)
_cell_angle_gamma 90.
_cell_volume 780.47
_cell_formula_units_Z 4
_symmetry_space_group_name_H-M 'C 1 2/m 1'
_symmetry_Int_Tables_number 12
_refine_ls_R_factor_all 0.07
loop_
_symmetry_equiv_pos_site_id
_symmetry_equiv_pos_as_xyz
1 '-x, y, -z'
2 '-x, -y, -z'
3 'x, -y, z'
4 'x, y, z'
5 '-x+1/2, y+1/2, -z'
6 '-x+1/2, -y+1/2, -z'
7 'x+1/2, -y+1/2, z'
8 'x+1/2, y+1/2, z'
loop_
_atom_type_symbol
_atom_type_oxidation_number
Ti3+ 3.667
O2- -2
loop_
_atom_site_label
_atom_site_type_symbol
_atom_site_symmetry_multiplicity
_atom_site_Wyckoff_symbol
_atom_site_fract_x
_atom_site_fract_y
_atom_site_fract_z
_atom_site_B_iso_or_equiv
_atom_site_occupancy
_atom_site_attached_hydrogens
Ti1 Ti3+ 4 i 0.209(1) 0 0.1092(7) . 1. 0
Ti2 Ti3+ 4 i 0.230(1) 0 0.2878(7) . 1. 0
Ti3 Ti3+ 4 i 0.957(1) 0 0.3567(6) . 1. 0
Ti4 Ti3+ 4 i 0.144(1) 0 0.4714(7) . 1. 0
Ti5 Ti3+ 4 i 0.107(1) 0 0.7951(6) . 1. 0
Ti6 Ti3+ 4 i 0.074(1) 0 0.9441(6) . 1. 0
O1 O2- 4 i 0.381(5) 0 0.054(2) . 1. 0
O2 O2- 4 i 0.115(4) 0 0.033(2) . 1. 0
O3 O2- 4 i 0.303(3) 0 0.211(2) . 1. 0
O4 O2- 4 i 0.030(4) 0 0.143(2) . 1. 0
O5 O2- 4 i 0.054(4) 0 0.273(2) . 1. 0
O6 O2- 4 i 0.436(5) 0 0.367(2) . 1. 0
O7 O2- 4 i 0.166(5) 0 0.386(2) . 1. 0
O8 O2- 4 i 0.334(4) 0 0.505(2) . 1. 0
O9 O2- 4 i 0.062(5) 0 0.558(2) . 1. 0
O10 O2- 4 i 0.204(5) 0 0.708(2) . 1. 0
O11 O2- 4 i 0.220(4) 0 0.873(2) . 1. 0
#End of TTdata_90958-ICSD