
#(C) 2019 by FIZ Karlsruhe - Leibniz Institute for Information Infrastructure.  All rights reserved.
data_95730-ICSD
_database_code_ICSD 95730
_audit_creation_date 2004-04-01
_chemical_name_systematic 'Oxygen fluorine (0.88/0.12)'
_chemical_formula_structural 'O0.875 F0.125'
_chemical_formula_sum 'F0.125 O0.875'
_exptl_crystal_density_diffrn 0.49
_publ_section_title 'The structure of Nb5 O12 F'
loop_
_citation_id
_citation_journal_full
_citation_year
_citation_journal_volume
_citation_page_first
_citation_page_last
_citation_journal_id_ASTM
primary 'Solid State Sciences' 2002 4 767 772 SSSCFJ
loop_
_publ_author_name
'Lidin, S.'
'Rohrer, F.'
'Larsson, A.K.'
_cell_length_a 3.936(3)
_cell_length_b 6.153(2)
_cell_length_c 2.28
_cell_angle_alpha 90
_cell_angle_beta 90
_cell_angle_gamma 90
_cell_volume 55.22
_cell_formula_units_Z 1
_symmetry_space_group_name_H-M 'P m c m'
_symmetry_Int_Tables_number 51
_refine_ls_R_factor_all 0.0421
loop_
_symmetry_equiv_pos_site_id
_symmetry_equiv_pos_as_xyz
1 '-x, y, -z+1/2'
2 '-x, -y, z+1/2'
3 '-x, y, z'
4 '-x, -y, -z'
5 'x, -y, z+1/2'
6 'x, y, -z+1/2'
7 'x, -y, -z'
8 'x, y, z'
loop_
_atom_type_symbol
_atom_type_oxidation_number
O0+ 0
F0+ 0
loop_
_atom_site_label
_atom_site_type_symbol
_atom_site_symmetry_multiplicity
_atom_site_Wyckoff_symbol
_atom_site_fract_x
_atom_site_fract_y
_atom_site_fract_z
_atom_site_B_iso_or_equiv
_atom_site_occupancy
_atom_site_attached_hydrogens
O1 O0+ 2 e 0 0.25 0.25 . 0.4375 0
F1 F0+ 2 e 0 0.25 0.25 . 0.0625 0
loop_
_atom_site_aniso_label
_atom_site_aniso_type_symbol
_atom_site_aniso_U_11
_atom_site_aniso_U_22
_atom_site_aniso_U_33
_atom_site_aniso_U_12
_atom_site_aniso_U_13
_atom_site_aniso_U_23
O1 O0+ 0.021(2) 0.023(3) 0.012(2) 0. 0. 0.
F1 F0+ 0.021(2) 0.023(3) 0.012(2) 0. 0. 0.
#End of TTdata_95730-ICSD