
#(C) 2019 by FIZ Karlsruhe - Leibniz Institute for Information Infrastructure.  All rights reserved.
data_96949-ICSD
_database_code_ICSD 96949
_audit_creation_date 2004-10-01
_chemical_name_systematic 'Lithium titanium oxide (0.59/1/2)'
_chemical_formula_structural 'Li0.59 Ti O2'
_chemical_formula_sum 'Li0.59 O2 Ti1'
_chemical_name_mineral 'Anatase (Li-bearing)'
_exptl_crystal_density_diffrn 3.97
_cell_measurement_temperature 10.
_publ_section_title
'Multiple Li positions inside oxygen octahedra in lithiated Ti O2 anatase'
loop_
_citation_id
_citation_journal_full
_citation_year
_citation_journal_volume
_citation_page_first
_citation_page_last
_citation_journal_id_ASTM
primary 'Journal of the American Chemical Society' 2003 125 840 848 JACSAT
loop_
_publ_author_name
'Wagemaker, M.'
'Kearley, G.J.'
'van Well, A.A.'
'Mutka, H.'
'Mulder, F.M.'
_cell_length_a 3.8141
_cell_length_b 4.0771
_cell_length_c 9.042
_cell_angle_alpha 90
_cell_angle_beta 90
_cell_angle_gamma 90
_cell_volume 140.61
_cell_formula_units_Z 4
_symmetry_space_group_name_H-M 'I m m a'
_symmetry_Int_Tables_number 74
_refine_ls_R_factor_all 0.034
loop_
_symmetry_equiv_pos_site_id
_symmetry_equiv_pos_as_xyz
1 '-x, y+1/2, -z'
2 '-x, -y+1/2, z'
3 '-x, y, z'
4 '-x, -y, -z'
5 'x, -y+1/2, z'
6 'x, y+1/2, -z'
7 'x, -y, -z'
8 'x, y, z'
9 '-x+1/2, y, -z+1/2'
10 '-x+1/2, -y, z+1/2'
11 '-x+1/2, y+1/2, z+1/2'
12 '-x+1/2, -y+1/2, -z+1/2'
13 'x+1/2, -y, z+1/2'
14 'x+1/2, y, -z+1/2'
15 'x+1/2, -y+1/2, -z+1/2'
16 'x+1/2, y+1/2, z+1/2'
loop_
_atom_type_symbol
_atom_type_oxidation_number
Ti3+ 3.41
O2- -2
Li1+ 1
loop_
_atom_site_label
_atom_site_type_symbol
_atom_site_symmetry_multiplicity
_atom_site_Wyckoff_symbol
_atom_site_fract_x
_atom_site_fract_y
_atom_site_fract_z
_atom_site_B_iso_or_equiv
_atom_site_occupancy
_atom_site_attached_hydrogens
Ti1 Ti3+ 4 e 0 0.25 0.8869 . 1. 0
O1 O2- 4 e 0 0.25 0.1041 . 1. 0
O2 O2- 4 e 0 0.25 0.6525 . 1. 0
Li1 Li1+ 4 e 0 0.25 0.3569 . 0.38 0
Li2 Li1+ 4 e 0 0.25 0.2888 . 0.21 0
#End of TTdata_96949-ICSD