
#(C) 2019 by FIZ Karlsruhe - Leibniz Institute for Information Infrastructure, and the U.S. Secretary of
#Commerce on behalf of the United States.  All rights reserved.
data_671295-ICSD
_database_code_ICSD 671295
_audit_creation_date 2017-02-01
_chemical_name_systematic 'Dilithium Peroxide'
_chemical_formula_structural 'Li2 O2'
_chemical_formula_sum 'Li2 O2'
_chemical_name_structure_type NiY
_exptl_crystal_density_diffrn 3.67
_cell_measurement_pressure 84000000.
_publ_section_title

;
Structural and electronic properties of alkali metal peroxides at high
pressures
;
loop_
_citation_id
_citation_journal_full
_citation_year
_citation_journal_volume
_citation_page_first
_citation_page_last
_citation_journal_id_ASTM
primary 'RSC Advances' 2015 5 104337 104342 RSCACL
loop_
_publ_author_name
'Deng, Naihang'
'Wang, Wenyong'
'Yang, Guochun'
'Qiu, Yongqing'
_cell_length_a 6.393
_cell_length_b 2.561
_cell_length_c 6.801
_cell_angle_alpha 90
_cell_angle_beta 158.107
_cell_angle_gamma 90
_cell_volume 41.51
_cell_formula_units_Z 2
_symmetry_space_group_name_H-M 'P 1 21/c 1'
_symmetry_Int_Tables_number 14
loop_
_symmetry_equiv_pos_site_id
_symmetry_equiv_pos_as_xyz
1 'x, -y+1/2, z+1/2'
2 '-x, -y, -z'
3 '-x, y+1/2, -z+1/2'
4 'x, y, z'
loop_
_atom_type_symbol
_atom_type_oxidation_number
Li0+ 0
O0+ 0
loop_
_atom_site_label
_atom_site_type_symbol
_atom_site_symmetry_multiplicity
_atom_site_Wyckoff_symbol
_atom_site_fract_x
_atom_site_fract_y
_atom_site_fract_z
_atom_site_B_iso_or_equiv
_atom_site_occupancy
_atom_site_attached_hydrogens
Li1 Li0+ 4 e 0.27 0.392 -0.095 1. 1. 0
O1 O0+ 4 e -0.192 0.899 -0.594 1. 1. 0
#End of TTdata_671295-ICSD