
#(C) 2019 by FIZ Karlsruhe - Leibniz Institute for Information Infrastructure, and the U.S. Secretary of
#Commerce on behalf of the United States.  All rights reserved.
data_671269-ICSD
_database_code_ICSD 671269
_audit_creation_date 2017-02-01
_chemical_name_systematic 'Titanium Oxide'
_chemical_formula_structural 'Ti O2'
_chemical_formula_sum 'O2 Ti1'
_chemical_name_structure_type VO2
_exptl_crystal_density_diffrn 6.51
_cell_measurement_pressure 100000000.
_publ_section_title
'Ten-fold coordinated polymorph and metallization of TiO2 under high pressure'
loop_
_citation_id
_citation_journal_full
_citation_year
_citation_journal_volume
_citation_page_first
_citation_page_last
_citation_journal_id_ASTM
primary 'RSC Advances' 2015 5 54253 54257 RSCACL
loop_
_publ_author_name
'Zhong, Xin'
'Wang, Jianyun'
'Zhang, Shoutao'
'Yang, Guochun'
'Wang, Yanchao'
_cell_length_a 4.9233
_cell_length_b 2.8563
_cell_length_c 5.7946
_cell_angle_alpha 90
_cell_angle_beta 90
_cell_angle_gamma 90
_cell_volume 81.48
_cell_formula_units_Z 4
_symmetry_space_group_name_H-M 'P n m a'
_symmetry_Int_Tables_number 62
loop_
_symmetry_equiv_pos_site_id
_symmetry_equiv_pos_as_xyz
1 'x+1/2, y, -z+1/2'
2 'x, -y+1/2, z'
3 '-x+1/2, y+1/2, z+1/2'
4 '-x, -y, -z'
5 '-x+1/2, -y, z+1/2'
6 '-x, y+1/2, -z'
7 'x+1/2, -y+1/2, -z+1/2'
8 'x, y, z'
loop_
_atom_type_symbol
_atom_type_oxidation_number
Ti0+ 0
O0+ 0
loop_
_atom_site_label
_atom_site_type_symbol
_atom_site_symmetry_multiplicity
_atom_site_Wyckoff_symbol
_atom_site_fract_x
_atom_site_fract_y
_atom_site_fract_z
_atom_site_B_iso_or_equiv
_atom_site_occupancy
_atom_site_attached_hydrogens
Ti1 Ti0+ 4 c -0.758 0.25 -0.625 1. 1. 0
O1 O0+ 4 c -0.643 0.25 -0.931 1. 1. 0
O2 O0+ 4 c -0.471 0.75 -0.665 1. 1. 0
#End of TTdata_671269-ICSD