
#(C) 2019 by FIZ Karlsruhe - Leibniz Institute for Information Infrastructure.  All rights reserved.
data_41056-ICSD
_database_code_ICSD 41056
_audit_creation_date 2000-07-15
_audit_update_record 2017-08-01
_chemical_name_systematic 'Titanium oxide - (B)'
_chemical_formula_structural 'Ti O2'
_chemical_formula_sum 'O2 Ti1'
_chemical_name_structure_type VO2(HT)
_exptl_crystal_density_diffrn 3.73
_cell_measurement_temperature 290.
_publ_section_title
'The soft chemical synthesis of TiO2 (B) from layered titanates'
loop_
_citation_id
_citation_journal_full
_citation_year
_citation_journal_volume
_citation_page_first
_citation_page_last
_citation_journal_id_ASTM
primary 'Journal of Solid State Chemistry' 1992 101 275 295 JSSCBI
loop_
_publ_author_name
'Feist, Thomas P.'
'Davies, Peter K.'
_cell_length_a 12.1787(10)
_cell_length_b 3.7412(2)
_cell_length_c 6.5249(5)
_cell_angle_alpha 90.
_cell_angle_beta 107.054(4)
_cell_angle_gamma 90.
_cell_volume 284.22
_cell_formula_units_Z 8
_symmetry_space_group_name_H-M 'C 1 2/m 1'
_symmetry_Int_Tables_number 12
_refine_ls_R_factor_all 0.032
loop_
_symmetry_equiv_pos_site_id
_symmetry_equiv_pos_as_xyz
1 '-x, y, -z'
2 '-x, -y, -z'
3 'x, -y, z'
4 'x, y, z'
5 '-x+1/2, y+1/2, -z'
6 '-x+1/2, -y+1/2, -z'
7 'x+1/2, -y+1/2, z'
8 'x+1/2, y+1/2, z'
loop_
_atom_type_symbol
_atom_type_oxidation_number
Ti4+ 4
O2- -2
loop_
_atom_site_label
_atom_site_type_symbol
_atom_site_symmetry_multiplicity
_atom_site_Wyckoff_symbol
_atom_site_fract_x
_atom_site_fract_y
_atom_site_fract_z
_atom_site_B_iso_or_equiv
_atom_site_occupancy
_atom_site_attached_hydrogens
Ti1 Ti4+ 4 i 0.197(7) 0 0.292(11) 0.85(15) 1. 0
Ti2 Ti4+ 4 i 0.099(7) 0 0.705(12) 0.35(11) 1. 0
O1 O2- 4 i 0.132(3) 0 0.004(7) 0.10(7) 1. 0
O2 O2- 4 i 0.264(4) 0 0.653(8) 0.10(10) 1. 0
O3 O2- 4 i 0.060(4) 0 0.371(6) 0.55(9) 1. 0
O4 O2- 4 i 0.362(4) 0 0.293(7) 0.87(12) 1. 0
#End of TTdata_41056-ICSD