
#(C) 2019 by FIZ Karlsruhe - Leibniz Institute for Information Infrastructure.  All rights reserved.
data_26399-ICSD
_database_code_ICSD 26399
_audit_creation_date 1981-12-31
_chemical_name_systematic 'Oxygen manganese fluoride (2/2/9)'
_chemical_formula_structural '(O2) (Mn2 F9)'
_chemical_formula_sum 'F9 Mn2 O2'
_exptl_crystal_density_diffrn 3.18
_cell_measurement_temperature 123.
_publ_section_title 'Zur Kenntnis von (O2)(+) (Mn2 F9)(-)'
loop_
_citation_id
_citation_journal_full
_citation_year
_citation_journal_volume
_citation_page_first
_citation_page_last
_citation_journal_id_ASTM
primary 'Journal of Fluorine Chemistry' 1981 17 409 421 JFLCAR
loop_
_publ_author_name
'Mueller, B.G.'
_cell_length_a 17.552
_cell_length_b 8.373
_cell_length_c 9.101
_cell_angle_alpha 90.
_cell_angle_beta 102.3
_cell_angle_gamma 90.
_cell_volume 1306.81
_cell_formula_units_Z 8
_symmetry_space_group_name_H-M 'C 1 2/c 1'
_symmetry_Int_Tables_number 15
_refine_ls_R_factor_all 0.053
loop_
_symmetry_equiv_pos_site_id
_symmetry_equiv_pos_as_xyz
1 'x, -y, z+1/2'
2 '-x, -y, -z'
3 '-x, y, -z+1/2'
4 'x, y, z'
5 'x+1/2, -y+1/2, z+1/2'
6 '-x+1/2, -y+1/2, -z'
7 '-x+1/2, y+1/2, -z+1/2'
8 'x+1/2, y+1/2, z'
loop_
_atom_type_symbol
_atom_type_oxidation_number
O0+ 0.5
Mn4+ 4
F1- -1
loop_
_atom_site_label
_atom_site_type_symbol
_atom_site_symmetry_multiplicity
_atom_site_Wyckoff_symbol
_atom_site_fract_x
_atom_site_fract_y
_atom_site_fract_z
_atom_site_B_iso_or_equiv
_atom_site_occupancy
_atom_site_attached_hydrogens
O1 O0+ 8 f 0.1948(2) 0.4507(3) 0.7291(3) . 1. 0
O2 O0+ 8 f 0.2004(2) 0.3830(4) 0.8335(3) . 1. 0
Mn1 Mn4+ 8 f 0.0739(1) 0.2537(1) 0.0549(1) . 1. 0
Mn2 Mn4+ 8 f 0.1240(1) 0.1376(1) 0.4416(1) . 1. 0
F1 F1- 8 f 0.0360(1) 0.2468(2) 0.4828(2) . 1. 0
F2 F1- 8 f 0.0744(1) 0.1380(2) 0.2345(2) . 1. 0
F3 F1- 8 f 0.1763(1) 0.2494(3) 0.0953(2) . 1. 0
F4 F1- 8 f 0.2015(1) 0.0285(3) 0.4003(2) . 1. 0
F5 F1- 8 f 0.1640(1) 0.1319(3) 0.6335(2) . 1. 0
F6 F1- 8 f 0.0688(1) 0.0540(2) 0.9547(2) . 1. 0
F7 F1- 8 f 0.0713(1) 0.3474(2) 0.8840(2) . 1. 0
F8 F1- 8 f 0.0721(1) 0.4340(2) 0.1486(2) . 1. 0
F9 F1- 8 f 0.1669(1) 0.3209(2) 0.4213(2) . 1. 0
loop_
_atom_site_aniso_label
_atom_site_aniso_type_symbol
_atom_site_aniso_U_11
_atom_site_aniso_U_22
_atom_site_aniso_U_33
_atom_site_aniso_U_12
_atom_site_aniso_U_13
_atom_site_aniso_U_23
O1 O0+ 0.0192(15) 0.0258(14) 0.0228(13) 0.0100(12) 0.0106(12) 0.0103(12)
O2 O0+ 0.0187(14) 0.0311(15) 0.0233(13) 0.0054(12) 0.0099(12) 0.0118(12)
Mn1 Mn4+ 0.0063(3) 0.0062(2) 0.0080(2) 0.0005(2) 0.0027(2) -.0002(2)
Mn2 Mn4+ 0.0060(3) 0.0077(2) 0.0071(2) 0.0007(2) 0.0022(2) -.0007(2)
F1 F1- 0.0065(10) 0.0108(8) 0.0125(8) -.0016(8) 0.0025(8) 0.0003(9)
F2 F1- 0.0093(10) 0.0106(8) 0.0091(8) 0.0014(8) 0.0011(8) -.0012(9)
F3 F1- 0.0058(10) 0.0161(9) 0.0141(9) 0.0010(9) 0.0019(8) 0.0009(9)
F4 F1- 0.0087(11) 0.0173(10) 0.0164(10) -.0026(9) 0.0051(9) 0.0020(9)
F5 F1- 0.0141(11) 0.0136(9) 0.0084(8) -.0002(8) 0.0006(9) -.0017(9)
F6 F1- 0.0091(10) 0.0094(9) 0.0111(9) -.0022(8) 0.0024(9) 0.0002(8)
F7 F1- 0.0168(10) 0.0126(9) 0.0115(9) 0.0063(8) 0.0063(9) 0.0000(9)
F8 F1- 0.0128(11) 0.0091(9) 0.0172(10) -.0036(8) 0.0015(10) -.0015(9)
F9 F1- 0.0125(11) 0.0114(9) 0.0145(9) 0.0018(8) 0.0024(9) -.0048(8)
#End of TTdata_26399-ICSD