
#(C) 2019 by FIZ Karlsruhe - Leibniz Institute for Information Infrastructure, and the U.S. Secretary of
#Commerce on behalf of the United States.  All rights reserved.
data_673020-ICSD
_database_code_ICSD 673020
_audit_creation_date 2018-02-01
_chemical_name_systematic Manganese
_chemical_formula_structural Mn
_chemical_formula_sum Mn1
_chemical_name_structure_type CaHg2
_exptl_crystal_density_diffrn 8.54
_publ_section_title 'Stability of the omega structure of transition elements'
loop_
_citation_id
_citation_journal_full
_citation_year
_citation_journal_volume
_citation_page_first
_citation_page_last
_citation_journal_id_ASTM
primary 'Physical Review B: Condensed Matter and Materials Physics' 2016 93
094108-1 11 PRBMDO
loop_
_publ_author_name
'Ikeda, Yuji'
'Tanaka, Isao'
_cell_length_a 3.887
_cell_length_b 3.887
_cell_length_c 2.448
_cell_angle_alpha 90
_cell_angle_beta 90
_cell_angle_gamma 120
_cell_volume 32.03
_cell_formula_units_Z 3
_symmetry_space_group_name_H-M 'P 6/m m m'
_symmetry_Int_Tables_number 191
loop_
_symmetry_equiv_pos_site_id
_symmetry_equiv_pos_as_xyz
1 '-x, -x+y, -z'
2 'x-y, -y, -z'
3 'y, x, -z'
4 '-x+y, -x, -z'
5 '-y, x-y, -z'
6 'x, y, -z'
7 'x, x-y, -z'
8 '-x+y, y, -z'
9 '-y, -x, -z'
10 'x-y, x, -z'
11 'y, -x+y, -z'
12 '-x, -y, -z'
13 'x, x-y, z'
14 '-x+y, y, z'
15 '-y, -x, z'
16 'x-y, x, z'
17 'y, -x+y, z'
18 '-x, -y, z'
19 '-x, -x+y, z'
20 'x-y, -y, z'
21 'y, x, z'
22 '-x+y, -x, z'
23 '-y, x-y, z'
24 'x, y, z'
loop_
_atom_type_symbol
_atom_type_oxidation_number
Mn0+ 0
loop_
_atom_site_label
_atom_site_type_symbol
_atom_site_symmetry_multiplicity
_atom_site_Wyckoff_symbol
_atom_site_fract_x
_atom_site_fract_y
_atom_site_fract_z
_atom_site_B_iso_or_equiv
_atom_site_occupancy
_atom_site_attached_hydrogens
Mn1 Mn0+ 1 a 0. 0. 0. 1. 1. 0
Mn2 Mn0+ 2 d 0.333333 0.666667 0.5 1. 1. 0
#End of TTdata_673020-ICSD