
#(C) 2019 by FIZ Karlsruhe - Leibniz Institute for Information Infrastructure.  All rights reserved.
data_187036-ICSD
_database_code_ICSD 187036
_audit_creation_date 2013-08-01
_chemical_name_systematic 'Manganese carbide (11/2)'
_chemical_formula_structural 'Mn11 C2'
_chemical_formula_sum 'C2 Mn11'
_exptl_crystal_density_diffrn 6.54
_publ_section_title
'Stability and structures of the CFCC- TmC phases: A first - principles study'
loop_
_citation_id
_citation_journal_full
_citation_year
_citation_journal_volume
_citation_page_first
_citation_page_last
_citation_journal_id_ASTM
primary 'Computational Materials Science' 2012 51 146 150 CMMSEM
loop_
_publ_author_name
'Fang, C.M.'
'van Huis, M.A.'
'Zandbergen, H.W.'
_cell_length_a 10.8459
_cell_length_b 10.8459
_cell_length_c 10.8459
_cell_angle_alpha 90.
_cell_angle_beta 90.
_cell_angle_gamma 90.
_cell_volume 1275.84
_cell_formula_units_Z 8
_symmetry_space_group_name_H-M 'F 2 3'
_symmetry_Int_Tables_number 196
loop_
_symmetry_equiv_pos_site_id
_symmetry_equiv_pos_as_xyz
1 '-z, -x, y'
2 '-y, -z, x'
3 '-x, -y, z'
4 '-z, x, -y'
5 '-y, z, -x'
6 '-x, y, -z'
7 'z, -x, -y'
8 'y, -z, -x'
9 'x, -y, -z'
10 'z, x, y'
11 'y, z, x'
12 'x, y, z'
13 '-z, -x+1/2, y+1/2'
14 '-y, -z+1/2, x+1/2'
15 '-x, -y+1/2, z+1/2'
16 '-z, x+1/2, -y+1/2'
17 '-y, z+1/2, -x+1/2'
18 '-x, y+1/2, -z+1/2'
19 'z, -x+1/2, -y+1/2'
20 'y, -z+1/2, -x+1/2'
21 'x, -y+1/2, -z+1/2'
22 'z, x+1/2, y+1/2'
23 'y, z+1/2, x+1/2'
24 'x, y+1/2, z+1/2'
25 '-z+1/2, -x, y+1/2'
26 '-y+1/2, -z, x+1/2'
27 '-x+1/2, -y, z+1/2'
28 '-z+1/2, x, -y+1/2'
29 '-y+1/2, z, -x+1/2'
30 '-x+1/2, y, -z+1/2'
31 'z+1/2, -x, -y+1/2'
32 'y+1/2, -z, -x+1/2'
33 'x+1/2, -y, -z+1/2'
34 'z+1/2, x, y+1/2'
35 'y+1/2, z, x+1/2'
36 'x+1/2, y, z+1/2'
37 '-z+1/2, -x+1/2, y'
38 '-y+1/2, -z+1/2, x'
39 '-x+1/2, -y+1/2, z'
40 '-z+1/2, x+1/2, -y'
41 '-y+1/2, z+1/2, -x'
42 '-x+1/2, y+1/2, -z'
43 'z+1/2, -x+1/2, -y'
44 'y+1/2, -z+1/2, -x'
45 'x+1/2, -y+1/2, -z'
46 'z+1/2, x+1/2, y'
47 'y+1/2, z+1/2, x'
48 'x+1/2, y+1/2, z'
loop_
_atom_type_symbol
_atom_type_oxidation_number
Mn0+ 0
C0+ 0
loop_
_atom_site_label
_atom_site_type_symbol
_atom_site_symmetry_multiplicity
_atom_site_Wyckoff_symbol
_atom_site_fract_x
_atom_site_fract_y
_atom_site_fract_z
_atom_site_B_iso_or_equiv
_atom_site_occupancy
_atom_site_attached_hydrogens
Mn1 Mn0+ 16 e 0.6353 0.6353 0.6353 . 1. 0
Mn2 Mn0+ 16 e 0.84 0.84 0.84 . 1. 0
Mn3 Mn0+ 16 e 0.4264 0.4264 0.4264 . 1. 0
Mn4 Mn0+ 16 e 0.3272 0.3272 0.3272 . 1. 0
Mn5 Mn0+ 24 f 0.1926 0 0 . 1. 0
#End of TTdata_187036-ICSD