
#(C) 2019 by FIZ Karlsruhe - Leibniz Institute for Information Infrastructure.  All rights reserved.
data_150462-ICSD
_database_code_ICSD 150462
_audit_creation_date 2006-04-01
_chemical_name_systematic 'Manganese(IV) oxide - gamma'
_chemical_formula_structural 'Mn O2'
_chemical_formula_sum 'Mn1 O2'
_exptl_crystal_density_diffrn 4.94
_publ_section_title 'On the structural defects in synthetic gamma-(Mn O2)s'
loop_
_citation_id
_citation_journal_full
_citation_year
_citation_journal_volume
_citation_page_first
_citation_page_last
_citation_journal_id_ASTM
primary 'Journal of Solid State Chemistry' 2004 177 4706 4723 JSSCBI
loop_
_publ_author_name
'Hill, L.I.'
'Verbaere, A.'
_cell_length_a 13.7
_cell_length_b 2.867
_cell_length_c 4.46
_cell_angle_alpha 90.
_cell_angle_beta 90.5
_cell_angle_gamma 90.
_cell_volume 175.17
_cell_formula_units_Z 6
_symmetry_space_group_name_H-M 'C 1 2/m 1'
_symmetry_Int_Tables_number 12
loop_
_symmetry_equiv_pos_site_id
_symmetry_equiv_pos_as_xyz
1 '-x, y, -z'
2 '-x, -y, -z'
3 'x, -y, z'
4 'x, y, z'
5 '-x+1/2, y+1/2, -z'
6 '-x+1/2, -y+1/2, -z'
7 'x+1/2, -y+1/2, z'
8 'x+1/2, y+1/2, z'
loop_
_atom_type_symbol
_atom_type_oxidation_number
Mn4+ 4
O2- -2
loop_
_atom_site_label
_atom_site_type_symbol
_atom_site_symmetry_multiplicity
_atom_site_Wyckoff_symbol
_atom_site_fract_x
_atom_site_fract_y
_atom_site_fract_z
_atom_site_B_iso_or_equiv
_atom_site_occupancy
_atom_site_attached_hydrogens
Mn1 Mn4+ 2 a 0 0 0 . 1. 0
Mn2 Mn4+ 4 i 0.661 0 0.506 . 1. 0
O1 O2- 4 i 0.4465 0 0.768 . 1. 0
O2 O2- 4 i 0.8905 0 0.26 . 1. 0
O3 O2- 4 i 0.783 0 0.726 . 1. 0
#End of TTdata_150462-ICSD