
#(C) 2019 by FIZ Karlsruhe - Leibniz Institute for Information Infrastructure.  All rights reserved.
data_187466-ICSD
_database_code_ICSD 187466
_audit_creation_date 2013-08-01
_chemical_name_systematic 'Dititanium trioxide'
_chemical_formula_structural 'Ti2 O3'
_chemical_formula_sum 'O3 Ti2'
_chemical_name_structure_type Sb2S3
_exptl_crystal_density_diffrn 5.29
_cell_measurement_temperature 293.
_publ_section_title

;
Pressure-temperature phase diagram of Ti2 O3 and physical properties in the
golden Th2 S3-type phase
;
loop_
_citation_id
_citation_journal_full
_citation_year
_citation_journal_volume
_citation_page_first
_citation_page_last
_citation_journal_id_ASTM
primary 'Physical Review B: Condensed Matter and Materials Physics' 2012 86
024106-1 024106-14 PRBMDO
loop_
_publ_author_name
'Ovsyannikov, Sergey V.'
'Wu, Xiang'
'Karkin, Alexander E.'
'Shchennikov, Vladimir V.'
'Manthilake, Geeth M.'
_cell_length_a 7.8248(6)
_cell_length_b 2.8507(4)
_cell_length_c 8.0967(3)
_cell_angle_alpha 90.
_cell_angle_beta 90.
_cell_angle_gamma 90.
_cell_volume 180.61
_cell_formula_units_Z 4
_symmetry_space_group_name_H-M 'P n m a'
_symmetry_Int_Tables_number 62
loop_
_symmetry_equiv_pos_site_id
_symmetry_equiv_pos_as_xyz
1 'x+1/2, y, -z+1/2'
2 'x, -y+1/2, z'
3 '-x+1/2, y+1/2, z+1/2'
4 '-x, -y, -z'
5 '-x+1/2, -y, z+1/2'
6 '-x, y+1/2, -z'
7 'x+1/2, -y+1/2, -z+1/2'
8 'x, y, z'
loop_
_atom_type_symbol
_atom_type_oxidation_number
Ti3+ 3
O2- -2
loop_
_atom_site_label
_atom_site_type_symbol
_atom_site_symmetry_multiplicity
_atom_site_Wyckoff_symbol
_atom_site_fract_x
_atom_site_fract_y
_atom_site_fract_z
_atom_site_B_iso_or_equiv
_atom_site_occupancy
_atom_site_attached_hydrogens
Ti1 Ti3+ 4 c 0.0279 0.25 0.3165 . 1. 0
Ti2 Ti3+ 4 c 0.1952 0.25 0.9822 . 1. 0
O1 O2- 4 c 0.9432 0.25 0.8704 . 1. 0
O2 O2- 4 c 0.1237 0.25 0.5545 . 1. 0
O3 O2- 4 c 0.7901 0.25 0.1885 . 1. 0
#End of TTdata_187466-ICSD