
#(C) 2019 by FIZ Karlsruhe - Leibniz Institute for Information Infrastructure.  All rights reserved.
data_9040-ICSD
_database_code_ICSD 9040
_audit_creation_date 1986-09-24
_audit_update_record 2007-04-01
_chemical_name_systematic 'Titanium oxide (7/13)'
_chemical_formula_structural 'Ti7 O13'
_chemical_formula_sum 'O13 Ti7'
_exptl_crystal_density_diffrn 4.29
_publ_section_title

;
Crystal structure studies on the homologous series Tin O2n-1 Vn O2n-1 Tin-2
Cr2 O2n-1
;
loop_
_citation_id
_citation_journal_full
_citation_year
_citation_journal_volume
_citation_page_first
_citation_page_last
_citation_journal_id_ASTM
primary 'Arkiv foer Kemi' 1963 21 413 426 ARKEAD
loop_
_publ_author_name
'Andersson, S.'
'Jahnberg, L.'
_cell_length_a 5.54
_cell_length_b 7.13
_cell_length_c 15.36
_cell_angle_alpha 98.9
_cell_angle_beta 125.5
_cell_angle_gamma 108.5
_cell_volume 420.85
_cell_formula_units_Z 2
_symmetry_space_group_name_H-M 'P -1'
_symmetry_Int_Tables_number 2
loop_
_symmetry_equiv_pos_site_id
_symmetry_equiv_pos_as_xyz
1 '-x, -y, -z'
2 'x, y, z'
loop_
_atom_type_symbol
_atom_type_oxidation_number
Ti0+ 0
O0+ 0
loop_
_atom_site_label
_atom_site_type_symbol
_atom_site_symmetry_multiplicity
_atom_site_Wyckoff_symbol
_atom_site_fract_x
_atom_site_fract_y
_atom_site_fract_z
_atom_site_B_iso_or_equiv
_atom_site_occupancy
_atom_site_attached_hydrogens
Ti1 Ti0+ 2 i 0.692 0.385 0.154 . 1. 0
Ti2 Ti0+ 2 i 0.692 0.885 0.154 . 1. 0
Ti3 Ti0+ 2 i 0.385 0.269 0.308 . 1. 0
Ti4 Ti0+ 2 i 0.385 0.769 0.308 . 1. 0
Ti5 Ti0+ 2 i 0.077 0.154 0.462 . 1. 0
Ti6 Ti0+ 2 i 0.077 0.654 0.462 . 1. 0
Ti7 Ti0+ 1 a 0 0 0 . 1. 0
Ti8 Ti0+ 1 c 0 0.5 0 . 1. 0
O1 O0+ 2 i 0.669 0.838 0.013 . 1. 0
O2 O0+ 2 i 0.212 0.812 0.047 . 1. 0
O3 O0+ 2 i 0.48 0.573 0.107 . 1. 0
O4 O0+ 2 i 0.024 0.547 0.141 . 1. 0
O5 O0+ 2 i 0.361 0.222 0.166 . 1. 0
O6 O0+ 2 i 0.904 0.196 0.201 . 1. 0
O7 O0+ 2 i 0.173 0.958 0.261 . 1. 0
O8 O0+ 2 i 0.716 0.932 0.295 . 1. 0
O9 O0+ 2 i 0.053 0.607 0.32 . 1. 0
O10 O0+ 2 i 0.596 0.581 0.355 . 1. 0
O11 O0+ 2 i 0.865 0.342 0.414 . 1. 0
O12 O0+ 2 i 0.408 0.316 0.449 . 1. 0
O13 O0+ 2 i 0.711 0.034 0.491 . 1. 0
#End of TTdata_9040-ICSD