
#(C) 2019 by FIZ Karlsruhe - Leibniz Institute for Information Infrastructure, and the U.S. Secretary of
#Commerce on behalf of the United States.  All rights reserved.
data_672745-ICSD
_database_code_ICSD 672745
_audit_creation_date 2018-02-01
_chemical_name_systematic Titanium
_chemical_formula_structural Ti
_chemical_formula_sum Ti1
_exptl_crystal_density_diffrn 4.46
_publ_section_title

;
Titanium alpha-omega phase transformation pathway and a predicted metastable
structure
;
loop_
_citation_id
_citation_journal_full
_citation_year
_citation_journal_volume
_citation_page_first
_citation_page_last
_citation_journal_id_ASTM
primary 'Physical Review B: Condensed Matter and Materials Physics' 2016 93
020104(R)-1 5 PRBMDO
loop_
_publ_author_name
'Zarkevich, N.A.'
'Johnson, D.D.'
_cell_length_a 5.01986
_cell_length_b 7.62874
_cell_length_c 5.58374
_cell_angle_alpha 90
_cell_angle_beta 90
_cell_angle_gamma 90
_cell_volume 213.82
_cell_formula_units_Z 12
_symmetry_space_group_name_H-M 'I b a m'
_symmetry_Int_Tables_number 72
loop_
_symmetry_equiv_pos_site_id
_symmetry_equiv_pos_as_xyz
1 '-x, y, z+1/2'
2 'x, -y, z+1/2'
3 'x, y, -z'
4 '-x, -y, -z'
5 'x, -y, -z+1/2'
6 '-x, y, -z+1/2'
7 '-x, -y, z'
8 'x, y, z'
9 '-x+1/2, y+1/2, z'
10 'x+1/2, -y+1/2, z'
11 'x+1/2, y+1/2, -z+1/2'
12 '-x+1/2, -y+1/2, -z+1/2'
13 'x+1/2, -y+1/2, -z'
14 '-x+1/2, y+1/2, -z'
15 '-x+1/2, -y+1/2, z+1/2'
16 'x+1/2, y+1/2, z+1/2'
loop_
_atom_type_symbol
_atom_type_oxidation_number
Ti0+ 0
loop_
_atom_site_label
_atom_site_type_symbol
_atom_site_symmetry_multiplicity
_atom_site_Wyckoff_symbol
_atom_site_fract_x
_atom_site_fract_y
_atom_site_fract_z
_atom_site_B_iso_or_equiv
_atom_site_occupancy
_atom_site_attached_hydrogens
Ti1 Ti0+ 4 a 0. 0. 0.25 1. 1. 0
Ti2 Ti0+ 8 j 0.41663 -0.17666 0. 1. 1. 0
#End of TTdata_672745-ICSD