
#(C) 2019 by FIZ Karlsruhe - Leibniz Institute for Information Infrastructure.  All rights reserved.
data_196273-ICSD
_database_code_ICSD 196273
_audit_creation_date 2016-02-01
_chemical_name_systematic 'Titanium oxide'
_chemical_formula_structural 'Ti O'
_chemical_formula_sum 'O1 Ti1'
_chemical_name_structure_type TaN
_exptl_crystal_density_diffrn 5.12
_cell_measurement_temperature 301.
_publ_section_title
'epsilon-Ti O, a novel stable polymorph of titanium monoxide'
loop_
_citation_id
_citation_journal_full
_citation_year
_citation_journal_volume
_citation_page_first
_citation_page_last
_citation_journal_id_ASTM
primary 'Angewandte Chemie, International Edition' 2016 55 1652 1657 ACIEF5
loop_
_publ_author_name
'Amano, Shinsaku'
'Bogdanovski, Dimitri'
'Yamane, Hisanori'
'Terauchi, Masami'
'Dronskowski, Richard'
_cell_length_a 4.9936(3)
_cell_length_b 4.9936(3)
_cell_length_c 2.8773(2)
_cell_angle_alpha 90.
_cell_angle_beta 90.
_cell_angle_gamma 120.
_cell_volume 62.14
_cell_formula_units_Z 3
_symmetry_space_group_name_H-M 'P -6 2 m'
_symmetry_Int_Tables_number 189
_refine_ls_R_factor_all 0.0113
loop_
_symmetry_equiv_pos_site_id
_symmetry_equiv_pos_as_xyz
1 '-x, -x+y, -z'
2 'x-y, -y, -z'
3 'y, x, -z'
4 '-x, -x+y, z'
5 'x-y, -y, z'
6 'y, x, z'
7 '-x+y, -x, -z'
8 '-y, x-y, -z'
9 'x, y, -z'
10 '-x+y, -x, z'
11 '-y, x-y, z'
12 'x, y, z'
loop_
_atom_type_symbol
_atom_type_oxidation_number
Ti2+ 2
O2- -2
loop_
_atom_site_label
_atom_site_type_symbol
_atom_site_symmetry_multiplicity
_atom_site_Wyckoff_symbol
_atom_site_fract_x
_atom_site_fract_y
_atom_site_fract_z
_atom_site_B_iso_or_equiv
_atom_site_occupancy
_atom_site_attached_hydrogens
Ti1 Ti2+ 2 d 0.3333 0.6667 0.5 0.00289(4) 1. 0
Ti2 Ti2+ 1 a 0 0 0 0.00319(4) 1. 0
O1 O2- 3 f 0.39542(17) 0 0 0.00380(9) 1. 0
loop_
_atom_site_aniso_label
_atom_site_aniso_type_symbol
_atom_site_aniso_U_11
_atom_site_aniso_U_22
_atom_site_aniso_U_33
_atom_site_aniso_U_12
_atom_site_aniso_U_13
_atom_site_aniso_U_23
Ti1 Ti2+ 0.00301(5) 0.00301(5) 0.00266(6) 0.00151(2) 0. 0.
Ti2 Ti2+ 0.00284(5) 0.00284(5) 0.00389(8) 0.00142(3) 0. 0.
O1 O2- 0.0037(2) 0.0032(2) 0.0043(2) 0.0016(1) 0. 0.
#End of TTdata_196273-ICSD